n -t * -s 0  -x 100 -y 200 -Z 0 -z 30  -v circle -c black
n -t * -s 1  -x 150 -y 100 -Z 0 -z 30  -v circle -c black
n -t * -s 2  -x 200 -y 200 -Z 0 -z 30  -v circle -c black
n -t * -s 3  -x 300 -y 400 -Z 0 -z 30  -v circle -c black
n -t * -s 4  -x 300 -y 200 -Z 0 -z 30  -v circle -c black
n -t * -s 5  -x 300 -y 100 -Z 0 -z 30  -v circle -c black
n -t * -s 6  -x 400 -y 200 -Z 0 -z 30  -v circle -c black
n -t * -s 7  -x 400 -y 100 -Z 0 -z 30  -v circle -c black
n -t * -s 8  -x 500 -y 200 -Z 0 -z 30  -v circle -c black
V -t * -v 1.0a5 -a 0
W -t * -x 500 -y 400
A -t * -n 1 -p 0 -o 0x7fffffff -c 30 -a 1
A -t * -h 1 -m 1073741823 -s 0
n -t 0 -s 0 -S COLOR -c green -o green -i green -I green
n -t 0 -s 0 -S DLABEL -l "Source" -L ""
n -t 0 -s 8 -S COLOR -c blue -o blue -i blue -I blue
n -t 0 -s 8 -S DLABEL -l "Destination" -L ""
n -t 0 -s 3 -S COLOR -c red -o red -i red -I red
n -t 0 -s 3 -S DLABEL -l "Attacker" -L ""
n -t 0.000000 -s 0 -x 100.000000 -y 200.000000 -U 4.831175 -V 1.288313 -T 6.209670
n -t 0.000000 -s 1 -x 150.000000 -y 100.000000 -U 1.755617 -V 4.681646 -T 1.708801
n -t 0.000000 -s 8 -x 500.000000 -y 200.000000 -U -4.472136 -V -2.236068 -T 6.708204
+ -t 0.000169789 -s 0 -d -1 -p OLSR -e 48 -c 2 -a 0 -i 0 -k RTR 
- -t 0.000169789 -s 0 -d -1 -p OLSR -e 48 -c 2 -a 0 -i 0 -k RTR
h -t 0.000169789 -s 0 -d -1 -p OLSR -e 48 -c 2 -a 0 -i 0 -k RTR
+ -t 0.000824789 -s 0 -d -1 -p OLSR -e 106 -c 2 -a 0 -i 0 -k MAC 
- -t 0.000824789 -s 0 -d -1 -p OLSR -e 106 -c 2 -a 0 -i 0 -k MAC
h -t 0.000824789 -s 0 -d -1 -p OLSR -e 106 -c 2 -a 0 -i 0 -k MAC
r -t 0.001673122 -s 2 -d -1 -p OLSR -e 48 -c 2 -a 0 -i 0 -k MAC
r -t 0.001673161 -s 1 -d -1 -p OLSR -e 48 -c 2 -a 0 -i 0 -k MAC
r -t 0.001673455 -s 4 -d -1 -p OLSR -e 48 -c 2 -a 0 -i 0 -k MAC
r -t 0.001673534 -s 5 -d -1 -p OLSR -e 48 -c 2 -a 0 -i 0 -k MAC
r -t 0.001698122 -s 2 -d -1 -p OLSR -e 48 -c 2 -a 0 -i 0 -k RTR
r -t 0.001698161 -s 1 -d -1 -p OLSR -e 48 -c 2 -a 0 -i 0 -k RTR
r -t 0.001698455 -s 4 -d -1 -p OLSR -e 48 -c 2 -a 0 -i 0 -k RTR
r -t 0.001698534 -s 5 -d -1 -p OLSR -e 48 -c 2 -a 0 -i 0 -k RTR
+ -t 0.044061336 -s 1 -d -1 -p OLSR -e 48 -c 2 -a 0 -i 1 -k RTR 
- -t 0.044061336 -s 1 -d -1 -p OLSR -e 48 -c 2 -a 0 -i 1 -k RTR
h -t 0.044061336 -s 1 -d -1 -p OLSR -e 48 -c 2 -a 0 -i 1 -k RTR
+ -t 0.044676336 -s 1 -d -1 -p OLSR -e 106 -c 2 -a 0 -i 1 -k MAC 
- -t 0.044676336 -s 1 -d -1 -p OLSR -e 106 -c 2 -a 0 -i 1 -k MAC
h -t 0.044676336 -s 1 -d -1 -p OLSR -e 106 -c 2 -a 0 -i 1 -k MAC
r -t 0.045524708 -s 2 -d -1 -p OLSR -e 48 -c 2 -a 0 -i 1 -k MAC
r -t 0.045524708 -s 0 -d -1 -p OLSR -e 48 -c 2 -a 0 -i 1 -k MAC
r -t 0.045524835 -s 5 -d -1 -p OLSR -e 48 -c 2 -a 0 -i 1 -k MAC
r -t 0.045524936 -s 4 -d -1 -p OLSR -e 48 -c 2 -a 0 -i 1 -k MAC
r -t 0.045525169 -s 7 -d -1 -p OLSR -e 48 -c 2 -a 0 -i 1 -k MAC
r -t 0.045549708 -s 2 -d -1 -p OLSR -e 48 -c 2 -a 0 -i 1 -k RTR
r -t 0.045549708 -s 0 -d -1 -p OLSR -e 48 -c 2 -a 0 -i 1 -k RTR
r -t 0.045549835 -s 5 -d -1 -p OLSR -e 48 -c 2 -a 0 -i 1 -k RTR
r -t 0.045549936 -s 4 -d -1 -p OLSR -e 48 -c 2 -a 0 -i 1 -k RTR
r -t 0.045550169 -s 7 -d -1 -p OLSR -e 48 -c 2 -a 0 -i 1 -k RTR
+ -t 0.056904124 -s 5 -d -1 -p OLSR -e 48 -c 2 -a 0 -i 2 -k RTR 
- -t 0.056904124 -s 5 -d -1 -p OLSR -e 48 -c 2 -a 0 -i 2 -k RTR
h -t 0.056904124 -s 5 -d -1 -p OLSR -e 48 -c 2 -a 0 -i 2 -k RTR
+ -t 0.057019124 -s 5 -d -1 -p OLSR -e 106 -c 2 -a 0 -i 2 -k MAC 
- -t 0.057019124 -s 5 -d -1 -p OLSR -e 106 -c 2 -a 0 -i 2 -k MAC
h -t 0.057019124 -s 5 -d -1 -p OLSR -e 106 -c 2 -a 0 -i 2 -k MAC
r -t 0.057867458 -s 4 -d -1 -p OLSR -e 48 -c 2 -a 0 -i 2 -k MAC
r -t 0.057867458 -s 7 -d -1 -p OLSR -e 48 -c 2 -a 0 -i 2 -k MAC
r -t 0.057867596 -s 2 -d -1 -p OLSR -e 48 -c 2 -a 0 -i 2 -k MAC
r -t 0.057867596 -s 6 -d -1 -p OLSR -e 48 -c 2 -a 0 -i 2 -k MAC
r -t 0.057867624 -s 1 -d -1 -p OLSR -e 48 -c 2 -a 0 -i 2 -k MAC
r -t 0.057867869 -s 8 -d -1 -p OLSR -e 48 -c 2 -a 0 -i 2 -k MAC
r -t 0.057867869 -s 0 -d -1 -p OLSR -e 48 -c 2 -a 0 -i 2 -k MAC
r -t 0.057892458 -s 4 -d -1 -p OLSR -e 48 -c 2 -a 0 -i 2 -k RTR
r -t 0.057892458 -s 7 -d -1 -p OLSR -e 48 -c 2 -a 0 -i 2 -k RTR
r -t 0.057892596 -s 2 -d -1 -p OLSR -e 48 -c 2 -a 0 -i 2 -k RTR
r -t 0.057892596 -s 6 -d -1 -p OLSR -e 48 -c 2 -a 0 -i 2 -k RTR
r -t 0.057892624 -s 1 -d -1 -p OLSR -e 48 -c 2 -a 0 -i 2 -k RTR
r -t 0.057892869 -s 8 -d -1 -p OLSR -e 48 -c 2 -a 0 -i 2 -k RTR
r -t 0.057892869 -s 0 -d -1 -p OLSR -e 48 -c 2 -a 0 -i 2 -k RTR
+ -t 0.082072703 -s 4 -d -1 -p OLSR -e 48 -c 2 -a 0 -i 3 -k RTR 
- -t 0.082072703 -s 4 -d -1 -p OLSR -e 48 -c 2 -a 0 -i 3 -k RTR
h -t 0.082072703 -s 4 -d -1 -p OLSR -e 48 -c 2 -a 0 -i 3 -k RTR
+ -t 0.082507703 -s 4 -d -1 -p OLSR -e 106 -c 2 -a 0 -i 3 -k MAC 
- -t 0.082507703 -s 4 -d -1 -p OLSR -e 106 -c 2 -a 0 -i 3 -k MAC
h -t 0.082507703 -s 4 -d -1 -p OLSR -e 106 -c 2 -a 0 -i 3 -k MAC
r -t 0.083356037 -s 2 -d -1 -p OLSR -e 48 -c 2 -a 0 -i 3 -k MAC
r -t 0.083356037 -s 5 -d -1 -p OLSR -e 48 -c 2 -a 0 -i 3 -k MAC
r -t 0.083356037 -s 6 -d -1 -p OLSR -e 48 -c 2 -a 0 -i 3 -k MAC
r -t 0.083356175 -s 7 -d -1 -p OLSR -e 48 -c 2 -a 0 -i 3 -k MAC
r -t 0.083356303 -s 1 -d -1 -p OLSR -e 48 -c 2 -a 0 -i 3 -k MAC
r -t 0.083356369 -s 0 -d -1 -p OLSR -e 48 -c 2 -a 0 -i 3 -k MAC
r -t 0.083356369 -s 8 -d -1 -p OLSR -e 48 -c 2 -a 0 -i 3 -k MAC
r -t 0.083356370 -s 3 -d -1 -p OLSR -e 48 -c 2 -a 0 -i 3 -k MAC
r -t 0.083381037 -s 2 -d -1 -p OLSR -e 48 -c 2 -a 0 -i 3 -k RTR
r -t 0.083381037 -s 5 -d -1 -p OLSR -e 48 -c 2 -a 0 -i 3 -k RTR
r -t 0.083381037 -s 6 -d -1 -p OLSR -e 48 -c 2 -a 0 -i 3 -k RTR
r -t 0.083381175 -s 7 -d -1 -p OLSR -e 48 -c 2 -a 0 -i 3 -k RTR
r -t 0.083381303 -s 1 -d -1 -p OLSR -e 48 -c 2 -a 0 -i 3 -k RTR
r -t 0.083381369 -s 0 -d -1 -p OLSR -e 48 -c 2 -a 0 -i 3 -k RTR
r -t 0.083381369 -s 8 -d -1 -p OLSR -e 48 -c 2 -a 0 -i 3 -k RTR
r -t 0.083381370 -s 3 -d -1 -p OLSR -e 48 -c 2 -a 0 -i 3 -k RTR
+ -t 0.087402627 -s 6 -d -1 -p OLSR -e 48 -c 2 -a 0 -i 4 -k RTR 
- -t 0.087402627 -s 6 -d -1 -p OLSR -e 48 -c 2 -a 0 -i 4 -k RTR
h -t 0.087402627 -s 6 -d -1 -p OLSR -e 48 -c 2 -a 0 -i 4 -k RTR
+ -t 0.087557627 -s 6 -d -1 -p OLSR -e 106 -c 2 -a 0 -i 4 -k MAC 
- -t 0.087557627 -s 6 -d -1 -p OLSR -e 106 -c 2 -a 0 -i 4 -k MAC
h -t 0.087557627 -s 6 -d -1 -p OLSR -e 106 -c 2 -a 0 -i 4 -k MAC
r -t 0.088405959 -s 8 -d -1 -p OLSR -e 48 -c 2 -a 0 -i 4 -k MAC
r -t 0.088405960 -s 4 -d -1 -p OLSR -e 48 -c 2 -a 0 -i 4 -k MAC
r -t 0.088405960 -s 7 -d -1 -p OLSR -e 48 -c 2 -a 0 -i 4 -k MAC
r -t 0.088406098 -s 5 -d -1 -p OLSR -e 48 -c 2 -a 0 -i 4 -k MAC
r -t 0.088406294 -s 2 -d -1 -p OLSR -e 48 -c 2 -a 0 -i 4 -k MAC
r -t 0.088406372 -s 3 -d -1 -p OLSR -e 48 -c 2 -a 0 -i 4 -k MAC
r -t 0.088430959 -s 8 -d -1 -p OLSR -e 48 -c 2 -a 0 -i 4 -k RTR
r -t 0.088430960 -s 4 -d -1 -p OLSR -e 48 -c 2 -a 0 -i 4 -k RTR
r -t 0.088430960 -s 7 -d -1 -p OLSR -e 48 -c 2 -a 0 -i 4 -k RTR
r -t 0.088431098 -s 5 -d -1 -p OLSR -e 48 -c 2 -a 0 -i 4 -k RTR
r -t 0.088431294 -s 2 -d -1 -p OLSR -e 48 -c 2 -a 0 -i 4 -k RTR
r -t 0.088431372 -s 3 -d -1 -p OLSR -e 48 -c 2 -a 0 -i 4 -k RTR
+ -t 0.156480886 -s 2 -d -1 -p OLSR -e 48 -c 2 -a 0 -i 5 -k RTR 
- -t 0.156480886 -s 2 -d -1 -p OLSR -e 48 -c 2 -a 0 -i 5 -k RTR
h -t 0.156480886 -s 2 -d -1 -p OLSR -e 48 -c 2 -a 0 -i 5 -k RTR
+ -t 0.156755886 -s 2 -d -1 -p OLSR -e 106 -c 2 -a 0 -i 5 -k MAC 
- -t 0.156755886 -s 2 -d -1 -p OLSR -e 106 -c 2 -a 0 -i 5 -k MAC
h -t 0.156755886 -s 2 -d -1 -p OLSR -e 106 -c 2 -a 0 -i 5 -k MAC
r -t 0.157604217 -s 0 -d -1 -p OLSR -e 48 -c 2 -a 0 -i 5 -k MAC
r -t 0.157604219 -s 4 -d -1 -p OLSR -e 48 -c 2 -a 0 -i 5 -k MAC
r -t 0.157604256 -s 1 -d -1 -p OLSR -e 48 -c 2 -a 0 -i 5 -k MAC
r -t 0.157604357 -s 5 -d -1 -p OLSR -e 48 -c 2 -a 0 -i 5 -k MAC
r -t 0.157604552 -s 6 -d -1 -p OLSR -e 48 -c 2 -a 0 -i 5 -k MAC
r -t 0.157604631 -s 3 -d -1 -p OLSR -e 48 -c 2 -a 0 -i 5 -k MAC
r -t 0.157604631 -s 7 -d -1 -p OLSR -e 48 -c 2 -a 0 -i 5 -k MAC
r -t 0.157629217 -s 0 -d -1 -p OLSR -e 48 -c 2 -a 0 -i 5 -k RTR
r -t 0.157629219 -s 4 -d -1 -p OLSR -e 48 -c 2 -a 0 -i 5 -k RTR
r -t 0.157629256 -s 1 -d -1 -p OLSR -e 48 -c 2 -a 0 -i 5 -k RTR
r -t 0.157629357 -s 5 -d -1 -p OLSR -e 48 -c 2 -a 0 -i 5 -k RTR
r -t 0.157629552 -s 6 -d -1 -p OLSR -e 48 -c 2 -a 0 -i 5 -k RTR
r -t 0.157629631 -s 3 -d -1 -p OLSR -e 48 -c 2 -a 0 -i 5 -k RTR
r -t 0.157629631 -s 7 -d -1 -p OLSR -e 48 -c 2 -a 0 -i 5 -k RTR
+ -t 0.174370513 -s 7 -d -1 -p OLSR -e 48 -c 2 -a 0 -i 6 -k RTR 
- -t 0.174370513 -s 7 -d -1 -p OLSR -e 48 -c 2 -a 0 -i 6 -k RTR
h -t 0.174370513 -s 7 -d -1 -p OLSR -e 48 -c 2 -a 0 -i 6 -k RTR
+ -t 0.174965513 -s 7 -d -1 -p OLSR -e 106 -c 2 -a 0 -i 6 -k MAC 
- -t 0.174965513 -s 7 -d -1 -p OLSR -e 106 -c 2 -a 0 -i 6 -k MAC
h -t 0.174965513 -s 7 -d -1 -p OLSR -e 106 -c 2 -a 0 -i 6 -k MAC
r -t 0.175813846 -s 6 -d -1 -p OLSR -e 48 -c 2 -a 0 -i 6 -k MAC
r -t 0.175813846 -s 5 -d -1 -p OLSR -e 48 -c 2 -a 0 -i 6 -k MAC
r -t 0.175813981 -s 8 -d -1 -p OLSR -e 48 -c 2 -a 0 -i 6 -k MAC
r -t 0.175813984 -s 4 -d -1 -p OLSR -e 48 -c 2 -a 0 -i 6 -k MAC
r -t 0.175814258 -s 2 -d -1 -p OLSR -e 48 -c 2 -a 0 -i 6 -k MAC
r -t 0.175814345 -s 1 -d -1 -p OLSR -e 48 -c 2 -a 0 -i 6 -k MAC
r -t 0.175838846 -s 6 -d -1 -p OLSR -e 48 -c 2 -a 0 -i 6 -k RTR
r -t 0.175838846 -s 5 -d -1 -p OLSR -e 48 -c 2 -a 0 -i 6 -k RTR
r -t 0.175838981 -s 8 -d -1 -p OLSR -e 48 -c 2 -a 0 -i 6 -k RTR
r -t 0.175838984 -s 4 -d -1 -p OLSR -e 48 -c 2 -a 0 -i 6 -k RTR
r -t 0.175839258 -s 2 -d -1 -p OLSR -e 48 -c 2 -a 0 -i 6 -k RTR
r -t 0.175839345 -s 1 -d -1 -p OLSR -e 48 -c 2 -a 0 -i 6 -k RTR
+ -t 0.259324397 -s 8 -d -1 -p OLSR -e 48 -c 2 -a 0 -i 7 -k RTR 
- -t 0.259324397 -s 8 -d -1 -p OLSR -e 48 -c 2 -a 0 -i 7 -k RTR
h -t 0.259324397 -s 8 -d -1 -p OLSR -e 48 -c 2 -a 0 -i 7 -k RTR
+ -t 0.259599397 -s 8 -d -1 -p OLSR -e 106 -c 2 -a 0 -i 7 -k MAC 
- -t 0.259599397 -s 8 -d -1 -p OLSR -e 106 -c 2 -a 0 -i 7 -k MAC
h -t 0.259599397 -s 8 -d -1 -p OLSR -e 106 -c 2 -a 0 -i 7 -k MAC
r -t 0.260447727 -s 6 -d -1 -p OLSR -e 48 -c 2 -a 0 -i 7 -k MAC
r -t 0.260447865 -s 7 -d -1 -p OLSR -e 48 -c 2 -a 0 -i 7 -k MAC
r -t 0.260448060 -s 4 -d -1 -p OLSR -e 48 -c 2 -a 0 -i 7 -k MAC
r -t 0.260448138 -s 5 -d -1 -p OLSR -e 48 -c 2 -a 0 -i 7 -k MAC
r -t 0.260472727 -s 6 -d -1 -p OLSR -e 48 -c 2 -a 0 -i 7 -k RTR
r -t 0.260472865 -s 7 -d -1 -p OLSR -e 48 -c 2 -a 0 -i 7 -k RTR
r -t 0.260473060 -s 4 -d -1 -p OLSR -e 48 -c 2 -a 0 -i 7 -k RTR
r -t 0.260473138 -s 5 -d -1 -p OLSR -e 48 -c 2 -a 0 -i 7 -k RTR
+ -t 0.319432572 -s 3 -d -1 -p OLSR -e 48 -c 2 -a 0 -i 8 -k RTR 
- -t 0.319432572 -s 3 -d -1 -p OLSR -e 48 -c 2 -a 0 -i 8 -k RTR
h -t 0.319432572 -s 3 -d -1 -p OLSR -e 48 -c 2 -a 0 -i 8 -k RTR
+ -t 0.319567572 -s 3 -d -1 -p OLSR -e 106 -c 2 -a 0 -i 8 -k MAC 
- -t 0.319567572 -s 3 -d -1 -p OLSR -e 106 -c 2 -a 0 -i 8 -k MAC
h -t 0.319567572 -s 3 -d -1 -p OLSR -e 106 -c 2 -a 0 -i 8 -k MAC
r -t 0.320416238 -s 4 -d -1 -p OLSR -e 48 -c 2 -a 0 -i 8 -k MAC
r -t 0.320416317 -s 2 -d -1 -p OLSR -e 48 -c 2 -a 0 -i 8 -k MAC
r -t 0.320416317 -s 6 -d -1 -p OLSR -e 48 -c 2 -a 0 -i 8 -k MAC
r -t 0.320441238 -s 4 -d -1 -p OLSR -e 48 -c 2 -a 0 -i 8 -k RTR
r -t 0.320441317 -s 2 -d -1 -p OLSR -e 48 -c 2 -a 0 -i 8 -k RTR
r -t 0.320441317 -s 6 -d -1 -p OLSR -e 48 -c 2 -a 0 -i 8 -k RTR
n -t 1.000000 -s 2 -x 200.000000 -y 200.000000 -U 2.236068 -V 4.472136 -T 4.472136
n -t 1.000000 -s 3 -x 300.000000 -y 400.000000 -U 0.374882 -V -4.985927 -T 26.675082
n -t 1.000000 -s 7 -x 400.000000 -y 100.000000 -U 4.867086 -V 1.145197 -T 17.464249
+ -t 1.653313722 -s 2 -d -1 -p OLSR -e 80 -c 2 -a 0 -i 9 -k RTR 
- -t 1.653313722 -s 2 -d -1 -p OLSR -e 80 -c 2 -a 0 -i 9 -k RTR
h -t 1.653313722 -s 2 -d -1 -p OLSR -e 80 -c 2 -a 0 -i 9 -k RTR
+ -t 1.653668722 -s 2 -d -1 -p OLSR -e 138 -c 2 -a 0 -i 9 -k MAC 
- -t 1.653668722 -s 2 -d -1 -p OLSR -e 138 -c 2 -a 0 -i 9 -k MAC
h -t 1.653668722 -s 2 -d -1 -p OLSR -e 138 -c 2 -a 0 -i 9 -k MAC
r -t 1.654773034 -s 0 -d -1 -p OLSR -e 80 -c 2 -a 0 -i 9 -k MAC
r -t 1.654773051 -s 4 -d -1 -p OLSR -e 80 -c 2 -a 0 -i 9 -k MAC
r -t 1.654773078 -s 1 -d -1 -p OLSR -e 80 -c 2 -a 0 -i 9 -k MAC
r -t 1.654773197 -s 5 -d -1 -p OLSR -e 80 -c 2 -a 0 -i 9 -k MAC
r -t 1.654773384 -s 6 -d -1 -p OLSR -e 80 -c 2 -a 0 -i 9 -k MAC
r -t 1.654773447 -s 3 -d -1 -p OLSR -e 80 -c 2 -a 0 -i 9 -k MAC
r -t 1.654773476 -s 7 -d -1 -p OLSR -e 80 -c 2 -a 0 -i 9 -k MAC
r -t 1.654798034 -s 0 -d -1 -p OLSR -e 80 -c 2 -a 0 -i 9 -k RTR
r -t 1.654798051 -s 4 -d -1 -p OLSR -e 80 -c 2 -a 0 -i 9 -k RTR
r -t 1.654798078 -s 1 -d -1 -p OLSR -e 80 -c 2 -a 0 -i 9 -k RTR
r -t 1.654798197 -s 5 -d -1 -p OLSR -e 80 -c 2 -a 0 -i 9 -k RTR
r -t 1.654798384 -s 6 -d -1 -p OLSR -e 80 -c 2 -a 0 -i 9 -k RTR
r -t 1.654798447 -s 3 -d -1 -p OLSR -e 80 -c 2 -a 0 -i 9 -k RTR
r -t 1.654798476 -s 7 -d -1 -p OLSR -e 80 -c 2 -a 0 -i 9 -k RTR
+ -t 1.867649845 -s 5 -d -1 -p OLSR -e 80 -c 2 -a 0 -i 10 -k RTR 
- -t 1.867649845 -s 5 -d -1 -p OLSR -e 80 -c 2 -a 0 -i 10 -k RTR
h -t 1.867649845 -s 5 -d -1 -p OLSR -e 80 -c 2 -a 0 -i 10 -k RTR
+ -t 1.867964845 -s 5 -d -1 -p OLSR -e 138 -c 2 -a 0 -i 10 -k MAC 
- -t 1.867964845 -s 5 -d -1 -p OLSR -e 138 -c 2 -a 0 -i 10 -k MAC
h -t 1.867964845 -s 5 -d -1 -p OLSR -e 138 -c 2 -a 0 -i 10 -k MAC
r -t 1.869069179 -s 4 -d -1 -p OLSR -e 80 -c 2 -a 0 -i 10 -k MAC
r -t 1.869069193 -s 7 -d -1 -p OLSR -e 80 -c 2 -a 0 -i 10 -k MAC
r -t 1.869069317 -s 6 -d -1 -p OLSR -e 80 -c 2 -a 0 -i 10 -k MAC
r -t 1.869069321 -s 2 -d -1 -p OLSR -e 80 -c 2 -a 0 -i 10 -k MAC
r -t 1.869069336 -s 1 -d -1 -p OLSR -e 80 -c 2 -a 0 -i 10 -k MAC
r -t 1.869069559 -s 8 -d -1 -p OLSR -e 80 -c 2 -a 0 -i 10 -k MAC
r -t 1.869069568 -s 0 -d -1 -p OLSR -e 80 -c 2 -a 0 -i 10 -k MAC
r -t 1.869094179 -s 4 -d -1 -p OLSR -e 80 -c 2 -a 0 -i 10 -k RTR
r -t 1.869094193 -s 7 -d -1 -p OLSR -e 80 -c 2 -a 0 -i 10 -k RTR
r -t 1.869094317 -s 6 -d -1 -p OLSR -e 80 -c 2 -a 0 -i 10 -k RTR
r -t 1.869094321 -s 2 -d -1 -p OLSR -e 80 -c 2 -a 0 -i 10 -k RTR
r -t 1.869094336 -s 1 -d -1 -p OLSR -e 80 -c 2 -a 0 -i 10 -k RTR
r -t 1.869094559 -s 8 -d -1 -p OLSR -e 80 -c 2 -a 0 -i 10 -k RTR
r -t 1.869094568 -s 0 -d -1 -p OLSR -e 80 -c 2 -a 0 -i 10 -k RTR
+ -t 1.897854105 -s 8 -d -1 -p OLSR -e 68 -c 2 -a 0 -i 11 -k RTR 
- -t 1.897854105 -s 8 -d -1 -p OLSR -e 68 -c 2 -a 0 -i 11 -k RTR
h -t 1.897854105 -s 8 -d -1 -p OLSR -e 68 -c 2 -a 0 -i 11 -k RTR
+ -t 1.898409105 -s 8 -d -1 -p OLSR -e 126 -c 2 -a 0 -i 11 -k MAC 
- -t 1.898409105 -s 8 -d -1 -p OLSR -e 126 -c 2 -a 0 -i 11 -k MAC
h -t 1.898409105 -s 8 -d -1 -p OLSR -e 126 -c 2 -a 0 -i 11 -k MAC
r -t 1.899417411 -s 6 -d -1 -p OLSR -e 68 -c 2 -a 0 -i 11 -k MAC
r -t 1.899417534 -s 7 -d -1 -p OLSR -e 68 -c 2 -a 0 -i 11 -k MAC
r -t 1.899417744 -s 4 -d -1 -p OLSR -e 68 -c 2 -a 0 -i 11 -k MAC
r -t 1.899417819 -s 5 -d -1 -p OLSR -e 68 -c 2 -a 0 -i 11 -k MAC
r -t 1.899442411 -s 6 -d -1 -p OLSR -e 68 -c 2 -a 0 -i 11 -k RTR
r -t 1.899442534 -s 7 -d -1 -p OLSR -e 68 -c 2 -a 0 -i 11 -k RTR
r -t 1.899442744 -s 4 -d -1 -p OLSR -e 68 -c 2 -a 0 -i 11 -k RTR
r -t 1.899442819 -s 5 -d -1 -p OLSR -e 68 -c 2 -a 0 -i 11 -k RTR
+ -t 1.992256948 -s 1 -d -1 -p OLSR -e 76 -c 2 -a 0 -i 12 -k RTR 
- -t 1.992256948 -s 1 -d -1 -p OLSR -e 76 -c 2 -a 0 -i 12 -k RTR
h -t 1.992256948 -s 1 -d -1 -p OLSR -e 76 -c 2 -a 0 -i 12 -k RTR
+ -t 1.992451948 -s 1 -d -1 -p OLSR -e 134 -c 2 -a 0 -i 12 -k MAC 
- -t 1.992451948 -s 1 -d -1 -p OLSR -e 134 -c 2 -a 0 -i 12 -k MAC
h -t 1.992451948 -s 1 -d -1 -p OLSR -e 134 -c 2 -a 0 -i 12 -k MAC
r -t 1.993524295 -s 0 -d -1 -p OLSR -e 76 -c 2 -a 0 -i 12 -k MAC
r -t 1.993524309 -s 2 -d -1 -p OLSR -e 76 -c 2 -a 0 -i 12 -k MAC
r -t 1.993524439 -s 5 -d -1 -p OLSR -e 76 -c 2 -a 0 -i 12 -k MAC
r -t 1.993524526 -s 4 -d -1 -p OLSR -e 76 -c 2 -a 0 -i 12 -k MAC
r -t 1.993549295 -s 0 -d -1 -p OLSR -e 76 -c 2 -a 0 -i 12 -k RTR
r -t 1.993549309 -s 2 -d -1 -p OLSR -e 76 -c 2 -a 0 -i 12 -k RTR
r -t 1.993549439 -s 5 -d -1 -p OLSR -e 76 -c 2 -a 0 -i 12 -k RTR
r -t 1.993549526 -s 4 -d -1 -p OLSR -e 76 -c 2 -a 0 -i 12 -k RTR
+ -t 1.994470625 -s 0 -d -1 -p OLSR -e 72 -c 2 -a 0 -i 13 -k RTR 
- -t 1.994470625 -s 0 -d -1 -p OLSR -e 72 -c 2 -a 0 -i 13 -k RTR
h -t 1.994470625 -s 0 -d -1 -p OLSR -e 72 -c 2 -a 0 -i 13 -k RTR
+ -t 1.994645625 -s 0 -d -1 -p OLSR -e 130 -c 2 -a 0 -i 13 -k MAC 
- -t 1.994645625 -s 0 -d -1 -p OLSR -e 130 -c 2 -a 0 -i 13 -k MAC
h -t 1.994645625 -s 0 -d -1 -p OLSR -e 130 -c 2 -a 0 -i 13 -k MAC
r -t 1.995685934 -s 2 -d -1 -p OLSR -e 72 -c 2 -a 0 -i 13 -k MAC
r -t 1.995685972 -s 1 -d -1 -p OLSR -e 72 -c 2 -a 0 -i 13 -k MAC
r -t 1.995686260 -s 4 -d -1 -p OLSR -e 72 -c 2 -a 0 -i 13 -k MAC
r -t 1.995686346 -s 5 -d -1 -p OLSR -e 72 -c 2 -a 0 -i 13 -k MAC
r -t 1.995710934 -s 2 -d -1 -p OLSR -e 72 -c 2 -a 0 -i 13 -k RTR
r -t 1.995710972 -s 1 -d -1 -p OLSR -e 72 -c 2 -a 0 -i 13 -k RTR
r -t 1.995711260 -s 4 -d -1 -p OLSR -e 72 -c 2 -a 0 -i 13 -k RTR
r -t 1.995711346 -s 5 -d -1 -p OLSR -e 72 -c 2 -a 0 -i 13 -k RTR
n -t 2.000000 -s 6 -x 400.000000 -y 200.000000 -U 3.535534 -V 3.535534 -T 22.627417
+ -t 2.009118971 -s 3 -d -1 -p OLSR -e 68 -c 2 -a 0 -i 14 -k RTR 
- -t 2.009118971 -s 3 -d -1 -p OLSR -e 68 -c 2 -a 0 -i 14 -k RTR
h -t 2.009118971 -s 3 -d -1 -p OLSR -e 68 -c 2 -a 0 -i 14 -k RTR
+ -t 2.009453971 -s 3 -d -1 -p OLSR -e 126 -c 2 -a 0 -i 14 -k MAC 
- -t 2.009453971 -s 3 -d -1 -p OLSR -e 126 -c 2 -a 0 -i 14 -k MAC
h -t 2.009453971 -s 3 -d -1 -p OLSR -e 126 -c 2 -a 0 -i 14 -k MAC
r -t 2.010462621 -s 4 -d -1 -p OLSR -e 68 -c 2 -a 0 -i 14 -k MAC
r -t 2.010462685 -s 2 -d -1 -p OLSR -e 68 -c 2 -a 0 -i 14 -k MAC
r -t 2.010462700 -s 6 -d -1 -p OLSR -e 68 -c 2 -a 0 -i 14 -k MAC
r -t 2.010487621 -s 4 -d -1 -p OLSR -e 68 -c 2 -a 0 -i 14 -k RTR
r -t 2.010487685 -s 2 -d -1 -p OLSR -e 68 -c 2 -a 0 -i 14 -k RTR
r -t 2.010487700 -s 6 -d -1 -p OLSR -e 68 -c 2 -a 0 -i 14 -k RTR
+ -t 2.224463573 -s 4 -d -1 -p OLSR -e 88 -c 2 -a 0 -i 15 -k RTR 
- -t 2.224463573 -s 4 -d -1 -p OLSR -e 88 -c 2 -a 0 -i 15 -k RTR
h -t 2.224463573 -s 4 -d -1 -p OLSR -e 88 -c 2 -a 0 -i 15 -k RTR
+ -t 2.224598573 -s 4 -d -1 -p OLSR -e 146 -c 2 -a 0 -i 15 -k MAC 
- -t 2.224598573 -s 4 -d -1 -p OLSR -e 146 -c 2 -a 0 -i 15 -k MAC
h -t 2.224598573 -s 4 -d -1 -p OLSR -e 146 -c 2 -a 0 -i 15 -k MAC
r -t 2.225766898 -s 2 -d -1 -p OLSR -e 88 -c 2 -a 0 -i 15 -k MAC
r -t 2.225766906 -s 5 -d -1 -p OLSR -e 88 -c 2 -a 0 -i 15 -k MAC
r -t 2.225766909 -s 6 -d -1 -p OLSR -e 88 -c 2 -a 0 -i 15 -k MAC
r -t 2.225767055 -s 7 -d -1 -p OLSR -e 88 -c 2 -a 0 -i 15 -k MAC
r -t 2.225767151 -s 1 -d -1 -p OLSR -e 88 -c 2 -a 0 -i 15 -k MAC
r -t 2.225767204 -s 0 -d -1 -p OLSR -e 88 -c 2 -a 0 -i 15 -k MAC
r -t 2.225767207 -s 8 -d -1 -p OLSR -e 88 -c 2 -a 0 -i 15 -k MAC
r -t 2.225767219 -s 3 -d -1 -p OLSR -e 88 -c 2 -a 0 -i 15 -k MAC
r -t 2.225791898 -s 2 -d -1 -p OLSR -e 88 -c 2 -a 0 -i 15 -k RTR
r -t 2.225791906 -s 5 -d -1 -p OLSR -e 88 -c 2 -a 0 -i 15 -k RTR
r -t 2.225791909 -s 6 -d -1 -p OLSR -e 88 -c 2 -a 0 -i 15 -k RTR
r -t 2.225792055 -s 7 -d -1 -p OLSR -e 88 -c 2 -a 0 -i 15 -k RTR
r -t 2.225792151 -s 1 -d -1 -p OLSR -e 88 -c 2 -a 0 -i 15 -k RTR
r -t 2.225792204 -s 0 -d -1 -p OLSR -e 88 -c 2 -a 0 -i 15 -k RTR
r -t 2.225792207 -s 8 -d -1 -p OLSR -e 88 -c 2 -a 0 -i 15 -k RTR
r -t 2.225792219 -s 3 -d -1 -p OLSR -e 88 -c 2 -a 0 -i 15 -k RTR
+ -t 2.257303894 -s 7 -d -1 -p OLSR -e 80 -c 2 -a 0 -i 16 -k RTR 
- -t 2.257303894 -s 7 -d -1 -p OLSR -e 80 -c 2 -a 0 -i 16 -k RTR
h -t 2.257303894 -s 7 -d -1 -p OLSR -e 80 -c 2 -a 0 -i 16 -k RTR
+ -t 2.257978894 -s 7 -d -1 -p OLSR -e 138 -c 2 -a 0 -i 16 -k MAC 
- -t 2.257978894 -s 7 -d -1 -p OLSR -e 138 -c 2 -a 0 -i 16 -k MAC
h -t 2.257978894 -s 7 -d -1 -p OLSR -e 138 -c 2 -a 0 -i 16 -k MAC
r -t 2.259083226 -s 6 -d -1 -p OLSR -e 80 -c 2 -a 0 -i 16 -k MAC
r -t 2.259083248 -s 5 -d -1 -p OLSR -e 80 -c 2 -a 0 -i 16 -k MAC
r -t 2.259083313 -s 8 -d -1 -p OLSR -e 80 -c 2 -a 0 -i 16 -k MAC
r -t 2.259083377 -s 4 -d -1 -p OLSR -e 80 -c 2 -a 0 -i 16 -k MAC
r -t 2.259083656 -s 2 -d -1 -p OLSR -e 80 -c 2 -a 0 -i 16 -k MAC
r -t 2.259108226 -s 6 -d -1 -p OLSR -e 80 -c 2 -a 0 -i 16 -k RTR
r -t 2.259108248 -s 5 -d -1 -p OLSR -e 80 -c 2 -a 0 -i 16 -k RTR
r -t 2.259108313 -s 8 -d -1 -p OLSR -e 80 -c 2 -a 0 -i 16 -k RTR
r -t 2.259108377 -s 4 -d -1 -p OLSR -e 80 -c 2 -a 0 -i 16 -k RTR
r -t 2.259108656 -s 2 -d -1 -p OLSR -e 80 -c 2 -a 0 -i 16 -k RTR
+ -t 2.440933923 -s 6 -d -1 -p OLSR -e 80 -c 2 -a 0 -i 17 -k RTR 
- -t 2.440933923 -s 6 -d -1 -p OLSR -e 80 -c 2 -a 0 -i 17 -k RTR
h -t 2.440933923 -s 6 -d -1 -p OLSR -e 80 -c 2 -a 0 -i 17 -k RTR
+ -t 2.441068923 -s 6 -d -1 -p OLSR -e 138 -c 2 -a 0 -i 17 -k MAC 
- -t 2.441068923 -s 6 -d -1 -p OLSR -e 138 -c 2 -a 0 -i 17 -k MAC
h -t 2.441068923 -s 6 -d -1 -p OLSR -e 138 -c 2 -a 0 -i 17 -k MAC
r -t 2.442173215 -s 8 -d -1 -p OLSR -e 80 -c 2 -a 0 -i 17 -k MAC
r -t 2.442173256 -s 7 -d -1 -p OLSR -e 80 -c 2 -a 0 -i 17 -k MAC
r -t 2.442173261 -s 4 -d -1 -p OLSR -e 80 -c 2 -a 0 -i 17 -k MAC
r -t 2.442173401 -s 5 -d -1 -p OLSR -e 80 -c 2 -a 0 -i 17 -k MAC
r -t 2.442173584 -s 2 -d -1 -p OLSR -e 80 -c 2 -a 0 -i 17 -k MAC
r -t 2.442173644 -s 3 -d -1 -p OLSR -e 80 -c 2 -a 0 -i 17 -k MAC
r -t 2.442198215 -s 8 -d -1 -p OLSR -e 80 -c 2 -a 0 -i 17 -k RTR
r -t 2.442198256 -s 7 -d -1 -p OLSR -e 80 -c 2 -a 0 -i 17 -k RTR
r -t 2.442198261 -s 4 -d -1 -p OLSR -e 80 -c 2 -a 0 -i 17 -k RTR
r -t 2.442198401 -s 5 -d -1 -p OLSR -e 80 -c 2 -a 0 -i 17 -k RTR
r -t 2.442198584 -s 2 -d -1 -p OLSR -e 80 -c 2 -a 0 -i 17 -k RTR
r -t 2.442198644 -s 3 -d -1 -p OLSR -e 80 -c 2 -a 0 -i 17 -k RTR
n -t 3.000000 -s 4 -x 300.000000 -y 200.000000 -U 0.000000 -V 5.000000 -T 5.600000
n -t 3.000000 -s 5 -x 300.000000 -y 100.000000 -U 3.809697 -V 3.238242 -T 10.499524
+ -t 3.435479318 -s 2 -d -1 -p OLSR -e 84 -c 2 -a 0 -i 18 -k RTR 
- -t 3.435479318 -s 2 -d -1 -p OLSR -e 84 -c 2 -a 0 -i 18 -k RTR
h -t 3.435479318 -s 2 -d -1 -p OLSR -e 84 -c 2 -a 0 -i 18 -k RTR
+ -t 3.435854318 -s 2 -d -1 -p OLSR -e 142 -c 2 -a 0 -i 18 -k MAC 
- -t 3.435854318 -s 2 -d -1 -p OLSR -e 142 -c 2 -a 0 -i 18 -k MAC
h -t 3.435854318 -s 2 -d -1 -p OLSR -e 142 -c 2 -a 0 -i 18 -k MAC
r -t 3.436990615 -s 0 -d -1 -p OLSR -e 84 -c 2 -a 0 -i 18 -k MAC
r -t 3.436990634 -s 4 -d -1 -p OLSR -e 84 -c 2 -a 0 -i 18 -k MAC
r -t 3.436990703 -s 1 -d -1 -p OLSR -e 84 -c 2 -a 0 -i 18 -k MAC
r -t 3.436990804 -s 5 -d -1 -p OLSR -e 84 -c 2 -a 0 -i 18 -k MAC
r -t 3.436990984 -s 6 -d -1 -p OLSR -e 84 -c 2 -a 0 -i 18 -k MAC
r -t 3.436990988 -s 3 -d -1 -p OLSR -e 84 -c 2 -a 0 -i 18 -k MAC
r -t 3.436991095 -s 7 -d -1 -p OLSR -e 84 -c 2 -a 0 -i 18 -k MAC
r -t 3.437015615 -s 0 -d -1 -p OLSR -e 84 -c 2 -a 0 -i 18 -k RTR
r -t 3.437015634 -s 4 -d -1 -p OLSR -e 84 -c 2 -a 0 -i 18 -k RTR
r -t 3.437015703 -s 1 -d -1 -p OLSR -e 84 -c 2 -a 0 -i 18 -k RTR
r -t 3.437015804 -s 5 -d -1 -p OLSR -e 84 -c 2 -a 0 -i 18 -k RTR
r -t 3.437015984 -s 6 -d -1 -p OLSR -e 84 -c 2 -a 0 -i 18 -k RTR
r -t 3.437015988 -s 3 -d -1 -p OLSR -e 84 -c 2 -a 0 -i 18 -k RTR
r -t 3.437016095 -s 7 -d -1 -p OLSR -e 84 -c 2 -a 0 -i 18 -k RTR
+ -t 3.676324118 -s 8 -d -1 -p OLSR -e 72 -c 2 -a 0 -i 19 -k RTR 
- -t 3.676324118 -s 8 -d -1 -p OLSR -e 72 -c 2 -a 0 -i 19 -k RTR
h -t 3.676324118 -s 8 -d -1 -p OLSR -e 72 -c 2 -a 0 -i 19 -k RTR
+ -t 3.676619118 -s 8 -d -1 -p OLSR -e 130 -c 2 -a 0 -i 19 -k MAC 
- -t 3.676619118 -s 8 -d -1 -p OLSR -e 130 -c 2 -a 0 -i 19 -k MAC
h -t 3.676619118 -s 8 -d -1 -p OLSR -e 130 -c 2 -a 0 -i 19 -k MAC
r -t 3.677659381 -s 6 -d -1 -p OLSR -e 72 -c 2 -a 0 -i 19 -k MAC
r -t 3.677659496 -s 7 -d -1 -p OLSR -e 72 -c 2 -a 0 -i 19 -k MAC
r -t 3.677659731 -s 4 -d -1 -p OLSR -e 72 -c 2 -a 0 -i 19 -k MAC
r -t 3.677659791 -s 5 -d -1 -p OLSR -e 72 -c 2 -a 0 -i 19 -k MAC
r -t 3.677684381 -s 6 -d -1 -p OLSR -e 72 -c 2 -a 0 -i 19 -k RTR
r -t 3.677684496 -s 7 -d -1 -p OLSR -e 72 -c 2 -a 0 -i 19 -k RTR
r -t 3.677684731 -s 4 -d -1 -p OLSR -e 72 -c 2 -a 0 -i 19 -k RTR
r -t 3.677684791 -s 5 -d -1 -p OLSR -e 72 -c 2 -a 0 -i 19 -k RTR
+ -t 3.691522976 -s 0 -d -1 -p OLSR -e 72 -c 2 -a 0 -i 20 -k RTR 
- -t 3.691522976 -s 0 -d -1 -p OLSR -e 72 -c 2 -a 0 -i 20 -k RTR
h -t 3.691522976 -s 0 -d -1 -p OLSR -e 72 -c 2 -a 0 -i 20 -k RTR
+ -t 3.691757976 -s 0 -d -1 -p OLSR -e 130 -c 2 -a 0 -i 20 -k MAC 
- -t 3.691757976 -s 0 -d -1 -p OLSR -e 130 -c 2 -a 0 -i 20 -k MAC
h -t 3.691757976 -s 0 -d -1 -p OLSR -e 130 -c 2 -a 0 -i 20 -k MAC
r -t 3.692798271 -s 2 -d -1 -p OLSR -e 72 -c 2 -a 0 -i 20 -k MAC
r -t 3.692798319 -s 1 -d -1 -p OLSR -e 72 -c 2 -a 0 -i 20 -k MAC
r -t 3.692798583 -s 4 -d -1 -p OLSR -e 72 -c 2 -a 0 -i 20 -k MAC
r -t 3.692798680 -s 5 -d -1 -p OLSR -e 72 -c 2 -a 0 -i 20 -k MAC
r -t 3.692823271 -s 2 -d -1 -p OLSR -e 72 -c 2 -a 0 -i 20 -k RTR
r -t 3.692823319 -s 1 -d -1 -p OLSR -e 72 -c 2 -a 0 -i 20 -k RTR
r -t 3.692823583 -s 4 -d -1 -p OLSR -e 72 -c 2 -a 0 -i 20 -k RTR
r -t 3.692823680 -s 5 -d -1 -p OLSR -e 72 -c 2 -a 0 -i 20 -k RTR
+ -t 3.734067728 -s 5 -d -1 -p OLSR -e 80 -c 2 -a 0 -i 21 -k RTR 
- -t 3.734067728 -s 5 -d -1 -p OLSR -e 80 -c 2 -a 0 -i 21 -k RTR
h -t 3.734067728 -s 5 -d -1 -p OLSR -e 80 -c 2 -a 0 -i 21 -k RTR
+ -t 3.734542728 -s 5 -d -1 -p OLSR -e 138 -c 2 -a 0 -i 21 -k MAC 
- -t 3.734542728 -s 5 -d -1 -p OLSR -e 138 -c 2 -a 0 -i 21 -k MAC
h -t 3.734542728 -s 5 -d -1 -p OLSR -e 138 -c 2 -a 0 -i 21 -k MAC
r -t 3.735647066 -s 4 -d -1 -p OLSR -e 80 -c 2 -a 0 -i 21 -k MAC
r -t 3.735647097 -s 7 -d -1 -p OLSR -e 80 -c 2 -a 0 -i 21 -k MAC
r -t 3.735647216 -s 2 -d -1 -p OLSR -e 80 -c 2 -a 0 -i 21 -k MAC
r -t 3.735647217 -s 6 -d -1 -p OLSR -e 80 -c 2 -a 0 -i 21 -k MAC
r -t 3.735647228 -s 1 -d -1 -p OLSR -e 80 -c 2 -a 0 -i 21 -k MAC
r -t 3.735647400 -s 8 -d -1 -p OLSR -e 80 -c 2 -a 0 -i 21 -k MAC
r -t 3.735647433 -s 0 -d -1 -p OLSR -e 80 -c 2 -a 0 -i 21 -k MAC
r -t 3.735672066 -s 4 -d -1 -p OLSR -e 80 -c 2 -a 0 -i 21 -k RTR
r -t 3.735672097 -s 7 -d -1 -p OLSR -e 80 -c 2 -a 0 -i 21 -k RTR
r -t 3.735672216 -s 2 -d -1 -p OLSR -e 80 -c 2 -a 0 -i 21 -k RTR
r -t 3.735672217 -s 6 -d -1 -p OLSR -e 80 -c 2 -a 0 -i 21 -k RTR
r -t 3.735672228 -s 1 -d -1 -p OLSR -e 80 -c 2 -a 0 -i 21 -k RTR
r -t 3.735672400 -s 8 -d -1 -p OLSR -e 80 -c 2 -a 0 -i 21 -k RTR
r -t 3.735672433 -s 0 -d -1 -p OLSR -e 80 -c 2 -a 0 -i 21 -k RTR
+ -t 3.904847831 -s 3 -d -1 -p OLSR -e 64 -c 2 -a 0 -i 22 -k RTR 
- -t 3.904847831 -s 3 -d -1 -p OLSR -e 64 -c 2 -a 0 -i 22 -k RTR
h -t 3.904847831 -s 3 -d -1 -p OLSR -e 64 -c 2 -a 0 -i 22 -k RTR
+ -t 3.905342831 -s 3 -d -1 -p OLSR -e 122 -c 2 -a 0 -i 22 -k MAC 
- -t 3.905342831 -s 3 -d -1 -p OLSR -e 122 -c 2 -a 0 -i 22 -k MAC
h -t 3.905342831 -s 3 -d -1 -p OLSR -e 122 -c 2 -a 0 -i 22 -k MAC
r -t 3.906319434 -s 4 -d -1 -p OLSR -e 64 -c 2 -a 0 -i 22 -k MAC
r -t 3.906319487 -s 2 -d -1 -p OLSR -e 64 -c 2 -a 0 -i 22 -k MAC
r -t 3.906319523 -s 6 -d -1 -p OLSR -e 64 -c 2 -a 0 -i 22 -k MAC
r -t 3.906344434 -s 4 -d -1 -p OLSR -e 64 -c 2 -a 0 -i 22 -k RTR
r -t 3.906344487 -s 2 -d -1 -p OLSR -e 64 -c 2 -a 0 -i 22 -k RTR
r -t 3.906344523 -s 6 -d -1 -p OLSR -e 64 -c 2 -a 0 -i 22 -k RTR
+ -t 3.926501980 -s 1 -d -1 -p OLSR -e 80 -c 2 -a 0 -i 23 -k RTR 
- -t 3.926501980 -s 1 -d -1 -p OLSR -e 80 -c 2 -a 0 -i 23 -k RTR
h -t 3.926501980 -s 1 -d -1 -p OLSR -e 80 -c 2 -a 0 -i 23 -k RTR
+ -t 3.926596980 -s 1 -d -1 -p OLSR -e 138 -c 2 -a 0 -i 23 -k MAC 
- -t 3.926596980 -s 1 -d -1 -p OLSR -e 138 -c 2 -a 0 -i 23 -k MAC
h -t 3.926596980 -s 1 -d -1 -p OLSR -e 138 -c 2 -a 0 -i 23 -k MAC
r -t 3.927701322 -s 0 -d -1 -p OLSR -e 80 -c 2 -a 0 -i 23 -k MAC
r -t 3.927701373 -s 2 -d -1 -p OLSR -e 80 -c 2 -a 0 -i 23 -k MAC
r -t 3.927701482 -s 5 -d -1 -p OLSR -e 80 -c 2 -a 0 -i 23 -k MAC
r -t 3.927701566 -s 4 -d -1 -p OLSR -e 80 -c 2 -a 0 -i 23 -k MAC
r -t 3.927726322 -s 0 -d -1 -p OLSR -e 80 -c 2 -a 0 -i 23 -k RTR
r -t 3.927726373 -s 2 -d -1 -p OLSR -e 80 -c 2 -a 0 -i 23 -k RTR
r -t 3.927726482 -s 5 -d -1 -p OLSR -e 80 -c 2 -a 0 -i 23 -k RTR
r -t 3.927726566 -s 4 -d -1 -p OLSR -e 80 -c 2 -a 0 -i 23 -k RTR
+ -t 4.179166745 -s 4 -d -1 -p OLSR -e 84 -c 2 -a 0 -i 24 -k RTR 
- -t 4.179166745 -s 4 -d -1 -p OLSR -e 84 -c 2 -a 0 -i 24 -k RTR
h -t 4.179166745 -s 4 -d -1 -p OLSR -e 84 -c 2 -a 0 -i 24 -k RTR
+ -t 4.179301745 -s 4 -d -1 -p OLSR -e 142 -c 2 -a 0 -i 24 -k MAC 
- -t 4.179301745 -s 4 -d -1 -p OLSR -e 142 -c 2 -a 0 -i 24 -k MAC
h -t 4.179301745 -s 4 -d -1 -p OLSR -e 142 -c 2 -a 0 -i 24 -k MAC
r -t 4.180438056 -s 2 -d -1 -p OLSR -e 84 -c 2 -a 0 -i 24 -k MAC
r -t 4.180438086 -s 5 -d -1 -p OLSR -e 84 -c 2 -a 0 -i 24 -k MAC
r -t 4.180438104 -s 6 -d -1 -p OLSR -e 84 -c 2 -a 0 -i 24 -k MAC
r -t 4.180438259 -s 7 -d -1 -p OLSR -e 84 -c 2 -a 0 -i 24 -k MAC
r -t 4.180438334 -s 1 -d -1 -p OLSR -e 84 -c 2 -a 0 -i 24 -k MAC
r -t 4.180438339 -s 3 -d -1 -p OLSR -e 84 -c 2 -a 0 -i 24 -k MAC
r -t 4.180438344 -s 0 -d -1 -p OLSR -e 84 -c 2 -a 0 -i 24 -k MAC
r -t 4.180438351 -s 8 -d -1 -p OLSR -e 84 -c 2 -a 0 -i 24 -k MAC
r -t 4.180463056 -s 2 -d -1 -p OLSR -e 84 -c 2 -a 0 -i 24 -k RTR
r -t 4.180463086 -s 5 -d -1 -p OLSR -e 84 -c 2 -a 0 -i 24 -k RTR
r -t 4.180463104 -s 6 -d -1 -p OLSR -e 84 -c 2 -a 0 -i 24 -k RTR
r -t 4.180463259 -s 7 -d -1 -p OLSR -e 84 -c 2 -a 0 -i 24 -k RTR
r -t 4.180463334 -s 1 -d -1 -p OLSR -e 84 -c 2 -a 0 -i 24 -k RTR
r -t 4.180463339 -s 3 -d -1 -p OLSR -e 84 -c 2 -a 0 -i 24 -k RTR
r -t 4.180463344 -s 0 -d -1 -p OLSR -e 84 -c 2 -a 0 -i 24 -k RTR
r -t 4.180463351 -s 8 -d -1 -p OLSR -e 84 -c 2 -a 0 -i 24 -k RTR
+ -t 4.207586828 -s 7 -d -1 -p OLSR -e 84 -c 2 -a 0 -i 25 -k RTR 
- -t 4.207586828 -s 7 -d -1 -p OLSR -e 84 -c 2 -a 0 -i 25 -k RTR
h -t 4.207586828 -s 7 -d -1 -p OLSR -e 84 -c 2 -a 0 -i 25 -k RTR
+ -t 4.208261828 -s 7 -d -1 -p OLSR -e 142 -c 2 -a 0 -i 25 -k MAC 
- -t 4.208261828 -s 7 -d -1 -p OLSR -e 142 -c 2 -a 0 -i 25 -k MAC
h -t 4.208261828 -s 7 -d -1 -p OLSR -e 142 -c 2 -a 0 -i 25 -k MAC
r -t 4.209398176 -s 6 -d -1 -p OLSR -e 84 -c 2 -a 0 -i 25 -k MAC
r -t 4.209398191 -s 8 -d -1 -p OLSR -e 84 -c 2 -a 0 -i 25 -k MAC
r -t 4.209398198 -s 5 -d -1 -p OLSR -e 84 -c 2 -a 0 -i 25 -k MAC
r -t 4.209398342 -s 4 -d -1 -p OLSR -e 84 -c 2 -a 0 -i 25 -k MAC
r -t 4.209398614 -s 2 -d -1 -p OLSR -e 84 -c 2 -a 0 -i 25 -k MAC
r -t 4.209423176 -s 6 -d -1 -p OLSR -e 84 -c 2 -a 0 -i 25 -k RTR
r -t 4.209423191 -s 8 -d -1 -p OLSR -e 84 -c 2 -a 0 -i 25 -k RTR
r -t 4.209423198 -s 5 -d -1 -p OLSR -e 84 -c 2 -a 0 -i 25 -k RTR
r -t 4.209423342 -s 4 -d -1 -p OLSR -e 84 -c 2 -a 0 -i 25 -k RTR
r -t 4.209423614 -s 2 -d -1 -p OLSR -e 84 -c 2 -a 0 -i 25 -k RTR