M 0.00000 0 (100.00, 200.00, 0.00), (130.00, 208.00), 5.00
M 0.00000 1 (150.00, 100.00, 0.00), (153.00, 108.00), 5.00
M 0.00000 8 (500.00, 200.00, 0.00), (470.00, 185.00), 5.00
s 0.000169789 _0_ RTR  --- 0 OLSR 48 [0 0 0 0] ------- [0:255 -1:255 32 0] [1 0 [HELLO 0 0 0]]
s 0.000824789 _0_ MAC  --- 0 OLSR 106 [0 ffffffff 0 800] ------- [0:255 -1:255 32 0] [1 0 [HELLO 0 0 0]]
r 0.001673122 _2_ MAC  --- 0 OLSR 48 [0 ffffffff 0 800] ------- [0:255 -1:255 32 0] [1 0 [HELLO 0 0 0]]
r 0.001673161 _1_ MAC  --- 0 OLSR 48 [0 ffffffff 0 800] ------- [0:255 -1:255 32 0] [1 0 [HELLO 0 0 0]]
r 0.001673455 _4_ MAC  --- 0 OLSR 48 [0 ffffffff 0 800] ------- [0:255 -1:255 32 0] [1 0 [HELLO 0 0 0]]
r 0.001673534 _5_ MAC  --- 0 OLSR 48 [0 ffffffff 0 800] ------- [0:255 -1:255 32 0] [1 0 [HELLO 0 0 0]]
r 0.001698122 _2_ RTR  --- 0 OLSR 48 [0 ffffffff 0 800] ------- [0:255 -1:255 32 0] [1 0 [HELLO 0 0 0]]
r 0.001698161 _1_ RTR  --- 0 OLSR 48 [0 ffffffff 0 800] ------- [0:255 -1:255 32 0] [1 0 [HELLO 0 0 0]]
r 0.001698455 _4_ RTR  --- 0 OLSR 48 [0 ffffffff 0 800] ------- [0:255 -1:255 32 0] [1 0 [HELLO 0 0 0]]
r 0.001698534 _5_ RTR  --- 0 OLSR 48 [0 ffffffff 0 800] ------- [0:255 -1:255 32 0] [1 0 [HELLO 0 0 0]]
s 0.044061336 _1_ RTR  --- 1 OLSR 48 [0 0 0 0] ------- [1:255 -1:255 32 0] [1 0 [HELLO 1 0 0]]
s 0.044676336 _1_ MAC  --- 1 OLSR 106 [0 ffffffff 1 800] ------- [1:255 -1:255 32 0] [1 0 [HELLO 1 0 0]]
r 0.045524708 _2_ MAC  --- 1 OLSR 48 [0 ffffffff 1 800] ------- [1:255 -1:255 32 0] [1 0 [HELLO 1 0 0]]
r 0.045524708 _0_ MAC  --- 1 OLSR 48 [0 ffffffff 1 800] ------- [1:255 -1:255 32 0] [1 0 [HELLO 1 0 0]]
r 0.045524835 _5_ MAC  --- 1 OLSR 48 [0 ffffffff 1 800] ------- [1:255 -1:255 32 0] [1 0 [HELLO 1 0 0]]
r 0.045524936 _4_ MAC  --- 1 OLSR 48 [0 ffffffff 1 800] ------- [1:255 -1:255 32 0] [1 0 [HELLO 1 0 0]]
r 0.045525169 _7_ MAC  --- 1 OLSR 48 [0 ffffffff 1 800] ------- [1:255 -1:255 32 0] [1 0 [HELLO 1 0 0]]
r 0.045549708 _2_ RTR  --- 1 OLSR 48 [0 ffffffff 1 800] ------- [1:255 -1:255 32 0] [1 0 [HELLO 1 0 0]]
r 0.045549708 _0_ RTR  --- 1 OLSR 48 [0 ffffffff 1 800] ------- [1:255 -1:255 32 0] [1 0 [HELLO 1 0 0]]
r 0.045549835 _5_ RTR  --- 1 OLSR 48 [0 ffffffff 1 800] ------- [1:255 -1:255 32 0] [1 0 [HELLO 1 0 0]]
r 0.045549936 _4_ RTR  --- 1 OLSR 48 [0 ffffffff 1 800] ------- [1:255 -1:255 32 0] [1 0 [HELLO 1 0 0]]
r 0.045550169 _7_ RTR  --- 1 OLSR 48 [0 ffffffff 1 800] ------- [1:255 -1:255 32 0] [1 0 [HELLO 1 0 0]]
s 0.056904124 _5_ RTR  --- 2 OLSR 48 [0 0 0 0] ------- [5:255 -1:255 32 0] [1 0 [HELLO 5 0 0]]
s 0.057019124 _5_ MAC  --- 2 OLSR 106 [0 ffffffff 5 800] ------- [5:255 -1:255 32 0] [1 0 [HELLO 5 0 0]]
r 0.057867458 _4_ MAC  --- 2 OLSR 48 [0 ffffffff 5 800] ------- [5:255 -1:255 32 0] [1 0 [HELLO 5 0 0]]
r 0.057867458 _7_ MAC  --- 2 OLSR 48 [0 ffffffff 5 800] ------- [5:255 -1:255 32 0] [1 0 [HELLO 5 0 0]]
r 0.057867596 _2_ MAC  --- 2 OLSR 48 [0 ffffffff 5 800] ------- [5:255 -1:255 32 0] [1 0 [HELLO 5 0 0]]
r 0.057867596 _6_ MAC  --- 2 OLSR 48 [0 ffffffff 5 800] ------- [5:255 -1:255 32 0] [1 0 [HELLO 5 0 0]]
r 0.057867624 _1_ MAC  --- 2 OLSR 48 [0 ffffffff 5 800] ------- [5:255 -1:255 32 0] [1 0 [HELLO 5 0 0]]
r 0.057867869 _8_ MAC  --- 2 OLSR 48 [0 ffffffff 5 800] ------- [5:255 -1:255 32 0] [1 0 [HELLO 5 0 0]]
r 0.057867869 _0_ MAC  --- 2 OLSR 48 [0 ffffffff 5 800] ------- [5:255 -1:255 32 0] [1 0 [HELLO 5 0 0]]
r 0.057892458 _4_ RTR  --- 2 OLSR 48 [0 ffffffff 5 800] ------- [5:255 -1:255 32 0] [1 0 [HELLO 5 0 0]]
r 0.057892458 _7_ RTR  --- 2 OLSR 48 [0 ffffffff 5 800] ------- [5:255 -1:255 32 0] [1 0 [HELLO 5 0 0]]
r 0.057892596 _2_ RTR  --- 2 OLSR 48 [0 ffffffff 5 800] ------- [5:255 -1:255 32 0] [1 0 [HELLO 5 0 0]]
r 0.057892596 _6_ RTR  --- 2 OLSR 48 [0 ffffffff 5 800] ------- [5:255 -1:255 32 0] [1 0 [HELLO 5 0 0]]
r 0.057892624 _1_ RTR  --- 2 OLSR 48 [0 ffffffff 5 800] ------- [5:255 -1:255 32 0] [1 0 [HELLO 5 0 0]]
r 0.057892869 _8_ RTR  --- 2 OLSR 48 [0 ffffffff 5 800] ------- [5:255 -1:255 32 0] [1 0 [HELLO 5 0 0]]
r 0.057892869 _0_ RTR  --- 2 OLSR 48 [0 ffffffff 5 800] ------- [5:255 -1:255 32 0] [1 0 [HELLO 5 0 0]]
s 0.082072703 _4_ RTR  --- 3 OLSR 48 [0 0 0 0] ------- [4:255 -1:255 32 0] [1 0 [HELLO 4 0 0]]
s 0.082507703 _4_ MAC  --- 3 OLSR 106 [0 ffffffff 4 800] ------- [4:255 -1:255 32 0] [1 0 [HELLO 4 0 0]]
r 0.083356037 _2_ MAC  --- 3 OLSR 48 [0 ffffffff 4 800] ------- [4:255 -1:255 32 0] [1 0 [HELLO 4 0 0]]
r 0.083356037 _5_ MAC  --- 3 OLSR 48 [0 ffffffff 4 800] ------- [4:255 -1:255 32 0] [1 0 [HELLO 4 0 0]]
r 0.083356037 _6_ MAC  --- 3 OLSR 48 [0 ffffffff 4 800] ------- [4:255 -1:255 32 0] [1 0 [HELLO 4 0 0]]
r 0.083356175 _7_ MAC  --- 3 OLSR 48 [0 ffffffff 4 800] ------- [4:255 -1:255 32 0] [1 0 [HELLO 4 0 0]]
r 0.083356303 _1_ MAC  --- 3 OLSR 48 [0 ffffffff 4 800] ------- [4:255 -1:255 32 0] [1 0 [HELLO 4 0 0]]
r 0.083356369 _0_ MAC  --- 3 OLSR 48 [0 ffffffff 4 800] ------- [4:255 -1:255 32 0] [1 0 [HELLO 4 0 0]]
r 0.083356369 _8_ MAC  --- 3 OLSR 48 [0 ffffffff 4 800] ------- [4:255 -1:255 32 0] [1 0 [HELLO 4 0 0]]
r 0.083356370 _3_ MAC  --- 3 OLSR 48 [0 ffffffff 4 800] ------- [4:255 -1:255 32 0] [1 0 [HELLO 4 0 0]]
r 0.083381037 _2_ RTR  --- 3 OLSR 48 [0 ffffffff 4 800] ------- [4:255 -1:255 32 0] [1 0 [HELLO 4 0 0]]
r 0.083381037 _5_ RTR  --- 3 OLSR 48 [0 ffffffff 4 800] ------- [4:255 -1:255 32 0] [1 0 [HELLO 4 0 0]]
r 0.083381037 _6_ RTR  --- 3 OLSR 48 [0 ffffffff 4 800] ------- [4:255 -1:255 32 0] [1 0 [HELLO 4 0 0]]
r 0.083381175 _7_ RTR  --- 3 OLSR 48 [0 ffffffff 4 800] ------- [4:255 -1:255 32 0] [1 0 [HELLO 4 0 0]]
r 0.083381303 _1_ RTR  --- 3 OLSR 48 [0 ffffffff 4 800] ------- [4:255 -1:255 32 0] [1 0 [HELLO 4 0 0]]
r 0.083381369 _0_ RTR  --- 3 OLSR 48 [0 ffffffff 4 800] ------- [4:255 -1:255 32 0] [1 0 [HELLO 4 0 0]]
r 0.083381369 _8_ RTR  --- 3 OLSR 48 [0 ffffffff 4 800] ------- [4:255 -1:255 32 0] [1 0 [HELLO 4 0 0]]
r 0.083381370 _3_ RTR  --- 3 OLSR 48 [0 ffffffff 4 800] ------- [4:255 -1:255 32 0] [1 0 [HELLO 4 0 0]]
s 0.087402627 _6_ RTR  --- 4 OLSR 48 [0 0 0 0] ------- [6:255 -1:255 32 0] [1 0 [HELLO 6 0 0]]
s 0.087557627 _6_ MAC  --- 4 OLSR 106 [0 ffffffff 6 800] ------- [6:255 -1:255 32 0] [1 0 [HELLO 6 0 0]]
r 0.088405959 _8_ MAC  --- 4 OLSR 48 [0 ffffffff 6 800] ------- [6:255 -1:255 32 0] [1 0 [HELLO 6 0 0]]
r 0.088405960 _4_ MAC  --- 4 OLSR 48 [0 ffffffff 6 800] ------- [6:255 -1:255 32 0] [1 0 [HELLO 6 0 0]]
r 0.088405960 _7_ MAC  --- 4 OLSR 48 [0 ffffffff 6 800] ------- [6:255 -1:255 32 0] [1 0 [HELLO 6 0 0]]
r 0.088406098 _5_ MAC  --- 4 OLSR 48 [0 ffffffff 6 800] ------- [6:255 -1:255 32 0] [1 0 [HELLO 6 0 0]]
r 0.088406294 _2_ MAC  --- 4 OLSR 48 [0 ffffffff 6 800] ------- [6:255 -1:255 32 0] [1 0 [HELLO 6 0 0]]
r 0.088406372 _3_ MAC  --- 4 OLSR 48 [0 ffffffff 6 800] ------- [6:255 -1:255 32 0] [1 0 [HELLO 6 0 0]]
r 0.088430959 _8_ RTR  --- 4 OLSR 48 [0 ffffffff 6 800] ------- [6:255 -1:255 32 0] [1 0 [HELLO 6 0 0]]
r 0.088430960 _4_ RTR  --- 4 OLSR 48 [0 ffffffff 6 800] ------- [6:255 -1:255 32 0] [1 0 [HELLO 6 0 0]]
r 0.088430960 _7_ RTR  --- 4 OLSR 48 [0 ffffffff 6 800] ------- [6:255 -1:255 32 0] [1 0 [HELLO 6 0 0]]
r 0.088431098 _5_ RTR  --- 4 OLSR 48 [0 ffffffff 6 800] ------- [6:255 -1:255 32 0] [1 0 [HELLO 6 0 0]]
r 0.088431294 _2_ RTR  --- 4 OLSR 48 [0 ffffffff 6 800] ------- [6:255 -1:255 32 0] [1 0 [HELLO 6 0 0]]
r 0.088431372 _3_ RTR  --- 4 OLSR 48 [0 ffffffff 6 800] ------- [6:255 -1:255 32 0] [1 0 [HELLO 6 0 0]]
s 0.156480886 _2_ RTR  --- 5 OLSR 48 [0 0 0 0] ------- [2:255 -1:255 32 0] [1 0 [HELLO 2 0 0]]
s 0.156755886 _2_ MAC  --- 5 OLSR 106 [0 ffffffff 2 800] ------- [2:255 -1:255 32 0] [1 0 [HELLO 2 0 0]]
r 0.157604217 _0_ MAC  --- 5 OLSR 48 [0 ffffffff 2 800] ------- [2:255 -1:255 32 0] [1 0 [HELLO 2 0 0]]
r 0.157604219 _4_ MAC  --- 5 OLSR 48 [0 ffffffff 2 800] ------- [2:255 -1:255 32 0] [1 0 [HELLO 2 0 0]]
r 0.157604256 _1_ MAC  --- 5 OLSR 48 [0 ffffffff 2 800] ------- [2:255 -1:255 32 0] [1 0 [HELLO 2 0 0]]
r 0.157604357 _5_ MAC  --- 5 OLSR 48 [0 ffffffff 2 800] ------- [2:255 -1:255 32 0] [1 0 [HELLO 2 0 0]]
r 0.157604552 _6_ MAC  --- 5 OLSR 48 [0 ffffffff 2 800] ------- [2:255 -1:255 32 0] [1 0 [HELLO 2 0 0]]
r 0.157604631 _3_ MAC  --- 5 OLSR 48 [0 ffffffff 2 800] ------- [2:255 -1:255 32 0] [1 0 [HELLO 2 0 0]]
r 0.157604631 _7_ MAC  --- 5 OLSR 48 [0 ffffffff 2 800] ------- [2:255 -1:255 32 0] [1 0 [HELLO 2 0 0]]
r 0.157629217 _0_ RTR  --- 5 OLSR 48 [0 ffffffff 2 800] ------- [2:255 -1:255 32 0] [1 0 [HELLO 2 0 0]]
r 0.157629219 _4_ RTR  --- 5 OLSR 48 [0 ffffffff 2 800] ------- [2:255 -1:255 32 0] [1 0 [HELLO 2 0 0]]
r 0.157629256 _1_ RTR  --- 5 OLSR 48 [0 ffffffff 2 800] ------- [2:255 -1:255 32 0] [1 0 [HELLO 2 0 0]]
r 0.157629357 _5_ RTR  --- 5 OLSR 48 [0 ffffffff 2 800] ------- [2:255 -1:255 32 0] [1 0 [HELLO 2 0 0]]
r 0.157629552 _6_ RTR  --- 5 OLSR 48 [0 ffffffff 2 800] ------- [2:255 -1:255 32 0] [1 0 [HELLO 2 0 0]]
r 0.157629631 _3_ RTR  --- 5 OLSR 48 [0 ffffffff 2 800] ------- [2:255 -1:255 32 0] [1 0 [HELLO 2 0 0]]
r 0.157629631 _7_ RTR  --- 5 OLSR 48 [0 ffffffff 2 800] ------- [2:255 -1:255 32 0] [1 0 [HELLO 2 0 0]]
s 0.174370513 _7_ RTR  --- 6 OLSR 48 [0 0 0 0] ------- [7:255 -1:255 32 0] [1 0 [HELLO 7 0 0]]
s 0.174965513 _7_ MAC  --- 6 OLSR 106 [0 ffffffff 7 800] ------- [7:255 -1:255 32 0] [1 0 [HELLO 7 0 0]]
r 0.175813846 _6_ MAC  --- 6 OLSR 48 [0 ffffffff 7 800] ------- [7:255 -1:255 32 0] [1 0 [HELLO 7 0 0]]
r 0.175813846 _5_ MAC  --- 6 OLSR 48 [0 ffffffff 7 800] ------- [7:255 -1:255 32 0] [1 0 [HELLO 7 0 0]]
r 0.175813981 _8_ MAC  --- 6 OLSR 48 [0 ffffffff 7 800] ------- [7:255 -1:255 32 0] [1 0 [HELLO 7 0 0]]
r 0.175813984 _4_ MAC  --- 6 OLSR 48 [0 ffffffff 7 800] ------- [7:255 -1:255 32 0] [1 0 [HELLO 7 0 0]]
r 0.175814258 _2_ MAC  --- 6 OLSR 48 [0 ffffffff 7 800] ------- [7:255 -1:255 32 0] [1 0 [HELLO 7 0 0]]
r 0.175814345 _1_ MAC  --- 6 OLSR 48 [0 ffffffff 7 800] ------- [7:255 -1:255 32 0] [1 0 [HELLO 7 0 0]]
r 0.175838846 _6_ RTR  --- 6 OLSR 48 [0 ffffffff 7 800] ------- [7:255 -1:255 32 0] [1 0 [HELLO 7 0 0]]
r 0.175838846 _5_ RTR  --- 6 OLSR 48 [0 ffffffff 7 800] ------- [7:255 -1:255 32 0] [1 0 [HELLO 7 0 0]]
r 0.175838981 _8_ RTR  --- 6 OLSR 48 [0 ffffffff 7 800] ------- [7:255 -1:255 32 0] [1 0 [HELLO 7 0 0]]
r 0.175838984 _4_ RTR  --- 6 OLSR 48 [0 ffffffff 7 800] ------- [7:255 -1:255 32 0] [1 0 [HELLO 7 0 0]]
r 0.175839258 _2_ RTR  --- 6 OLSR 48 [0 ffffffff 7 800] ------- [7:255 -1:255 32 0] [1 0 [HELLO 7 0 0]]
r 0.175839345 _1_ RTR  --- 6 OLSR 48 [0 ffffffff 7 800] ------- [7:255 -1:255 32 0] [1 0 [HELLO 7 0 0]]
s 0.259324397 _8_ RTR  --- 7 OLSR 48 [0 0 0 0] ------- [8:255 -1:255 32 0] [1 0 [HELLO 8 0 0]]
s 0.259599397 _8_ MAC  --- 7 OLSR 106 [0 ffffffff 8 800] ------- [8:255 -1:255 32 0] [1 0 [HELLO 8 0 0]]
r 0.260447727 _6_ MAC  --- 7 OLSR 48 [0 ffffffff 8 800] ------- [8:255 -1:255 32 0] [1 0 [HELLO 8 0 0]]
r 0.260447865 _7_ MAC  --- 7 OLSR 48 [0 ffffffff 8 800] ------- [8:255 -1:255 32 0] [1 0 [HELLO 8 0 0]]
r 0.260448060 _4_ MAC  --- 7 OLSR 48 [0 ffffffff 8 800] ------- [8:255 -1:255 32 0] [1 0 [HELLO 8 0 0]]
r 0.260448138 _5_ MAC  --- 7 OLSR 48 [0 ffffffff 8 800] ------- [8:255 -1:255 32 0] [1 0 [HELLO 8 0 0]]
r 0.260472727 _6_ RTR  --- 7 OLSR 48 [0 ffffffff 8 800] ------- [8:255 -1:255 32 0] [1 0 [HELLO 8 0 0]]
r 0.260472865 _7_ RTR  --- 7 OLSR 48 [0 ffffffff 8 800] ------- [8:255 -1:255 32 0] [1 0 [HELLO 8 0 0]]
r 0.260473060 _4_ RTR  --- 7 OLSR 48 [0 ffffffff 8 800] ------- [8:255 -1:255 32 0] [1 0 [HELLO 8 0 0]]
r 0.260473138 _5_ RTR  --- 7 OLSR 48 [0 ffffffff 8 800] ------- [8:255 -1:255 32 0] [1 0 [HELLO 8 0 0]]
s 0.319432572 _3_ RTR  --- 8 OLSR 48 [0 0 0 0] ------- [3:255 -1:255 32 0] [1 0 [HELLO 3 0 0]]
s 0.319567572 _3_ MAC  --- 8 OLSR 106 [0 ffffffff 3 800] ------- [3:255 -1:255 32 0] [1 0 [HELLO 3 0 0]]
r 0.320416238 _4_ MAC  --- 8 OLSR 48 [0 ffffffff 3 800] ------- [3:255 -1:255 32 0] [1 0 [HELLO 3 0 0]]
r 0.320416317 _2_ MAC  --- 8 OLSR 48 [0 ffffffff 3 800] ------- [3:255 -1:255 32 0] [1 0 [HELLO 3 0 0]]
r 0.320416317 _6_ MAC  --- 8 OLSR 48 [0 ffffffff 3 800] ------- [3:255 -1:255 32 0] [1 0 [HELLO 3 0 0]]
r 0.320441238 _4_ RTR  --- 8 OLSR 48 [0 ffffffff 3 800] ------- [3:255 -1:255 32 0] [1 0 [HELLO 3 0 0]]
r 0.320441317 _2_ RTR  --- 8 OLSR 48 [0 ffffffff 3 800] ------- [3:255 -1:255 32 0] [1 0 [HELLO 3 0 0]]
r 0.320441317 _6_ RTR  --- 8 OLSR 48 [0 ffffffff 3 800] ------- [3:255 -1:255 32 0] [1 0 [HELLO 3 0 0]]
M 1.00000 2 (200.00, 200.00, 0.00), (210.00, 220.00), 5.00
M 1.00000 3 (300.00, 400.00, 0.00), (310.00, 267.00), 5.00
M 1.00000 7 (400.00, 100.00, 0.00), (485.00, 120.00), 5.00
s 1.653313722 _2_ RTR  --- 9 OLSR 80 [0 0 0 0] ------- [2:255 -1:255 32 0] [1 1 [HELLO 2 0 1]]
s 1.653668722 _2_ MAC  --- 9 OLSR 138 [0 ffffffff 2 800] ------- [2:255 -1:255 32 0] [1 1 [HELLO 2 0 1]]
r 1.654773034 _0_ MAC  --- 9 OLSR 80 [0 ffffffff 2 800] ------- [2:255 -1:255 32 0] [1 1 [HELLO 2 0 1]]
r 1.654773051 _4_ MAC  --- 9 OLSR 80 [0 ffffffff 2 800] ------- [2:255 -1:255 32 0] [1 1 [HELLO 2 0 1]]
r 1.654773078 _1_ MAC  --- 9 OLSR 80 [0 ffffffff 2 800] ------- [2:255 -1:255 32 0] [1 1 [HELLO 2 0 1]]
r 1.654773197 _5_ MAC  --- 9 OLSR 80 [0 ffffffff 2 800] ------- [2:255 -1:255 32 0] [1 1 [HELLO 2 0 1]]
r 1.654773384 _6_ MAC  --- 9 OLSR 80 [0 ffffffff 2 800] ------- [2:255 -1:255 32 0] [1 1 [HELLO 2 0 1]]
r 1.654773447 _3_ MAC  --- 9 OLSR 80 [0 ffffffff 2 800] ------- [2:255 -1:255 32 0] [1 1 [HELLO 2 0 1]]
r 1.654773476 _7_ MAC  --- 9 OLSR 80 [0 ffffffff 2 800] ------- [2:255 -1:255 32 0] [1 1 [HELLO 2 0 1]]
r 1.654798034 _0_ RTR  --- 9 OLSR 80 [0 ffffffff 2 800] ------- [2:255 -1:255 32 0] [1 1 [HELLO 2 0 1]]
r 1.654798051 _4_ RTR  --- 9 OLSR 80 [0 ffffffff 2 800] ------- [2:255 -1:255 32 0] [1 1 [HELLO 2 0 1]]
r 1.654798078 _1_ RTR  --- 9 OLSR 80 [0 ffffffff 2 800] ------- [2:255 -1:255 32 0] [1 1 [HELLO 2 0 1]]
r 1.654798197 _5_ RTR  --- 9 OLSR 80 [0 ffffffff 2 800] ------- [2:255 -1:255 32 0] [1 1 [HELLO 2 0 1]]
r 1.654798384 _6_ RTR  --- 9 OLSR 80 [0 ffffffff 2 800] ------- [2:255 -1:255 32 0] [1 1 [HELLO 2 0 1]]
r 1.654798447 _3_ RTR  --- 9 OLSR 80 [0 ffffffff 2 800] ------- [2:255 -1:255 32 0] [1 1 [HELLO 2 0 1]]
r 1.654798476 _7_ RTR  --- 9 OLSR 80 [0 ffffffff 2 800] ------- [2:255 -1:255 32 0] [1 1 [HELLO 2 0 1]]
s 1.867649845 _5_ RTR  --- 10 OLSR 80 [0 0 0 0] ------- [5:255 -1:255 32 0] [1 1 [HELLO 5 0 1]]
s 1.867964845 _5_ MAC  --- 10 OLSR 138 [0 ffffffff 5 800] ------- [5:255 -1:255 32 0] [1 1 [HELLO 5 0 1]]
r 1.869069179 _4_ MAC  --- 10 OLSR 80 [0 ffffffff 5 800] ------- [5:255 -1:255 32 0] [1 1 [HELLO 5 0 1]]
r 1.869069193 _7_ MAC  --- 10 OLSR 80 [0 ffffffff 5 800] ------- [5:255 -1:255 32 0] [1 1 [HELLO 5 0 1]]
r 1.869069317 _6_ MAC  --- 10 OLSR 80 [0 ffffffff 5 800] ------- [5:255 -1:255 32 0] [1 1 [HELLO 5 0 1]]
r 1.869069321 _2_ MAC  --- 10 OLSR 80 [0 ffffffff 5 800] ------- [5:255 -1:255 32 0] [1 1 [HELLO 5 0 1]]
r 1.869069336 _1_ MAC  --- 10 OLSR 80 [0 ffffffff 5 800] ------- [5:255 -1:255 32 0] [1 1 [HELLO 5 0 1]]
r 1.869069559 _8_ MAC  --- 10 OLSR 80 [0 ffffffff 5 800] ------- [5:255 -1:255 32 0] [1 1 [HELLO 5 0 1]]
r 1.869069568 _0_ MAC  --- 10 OLSR 80 [0 ffffffff 5 800] ------- [5:255 -1:255 32 0] [1 1 [HELLO 5 0 1]]
r 1.869094179 _4_ RTR  --- 10 OLSR 80 [0 ffffffff 5 800] ------- [5:255 -1:255 32 0] [1 1 [HELLO 5 0 1]]
r 1.869094193 _7_ RTR  --- 10 OLSR 80 [0 ffffffff 5 800] ------- [5:255 -1:255 32 0] [1 1 [HELLO 5 0 1]]
r 1.869094317 _6_ RTR  --- 10 OLSR 80 [0 ffffffff 5 800] ------- [5:255 -1:255 32 0] [1 1 [HELLO 5 0 1]]
r 1.869094321 _2_ RTR  --- 10 OLSR 80 [0 ffffffff 5 800] ------- [5:255 -1:255 32 0] [1 1 [HELLO 5 0 1]]
r 1.869094336 _1_ RTR  --- 10 OLSR 80 [0 ffffffff 5 800] ------- [5:255 -1:255 32 0] [1 1 [HELLO 5 0 1]]
r 1.869094559 _8_ RTR  --- 10 OLSR 80 [0 ffffffff 5 800] ------- [5:255 -1:255 32 0] [1 1 [HELLO 5 0 1]]
r 1.869094568 _0_ RTR  --- 10 OLSR 80 [0 ffffffff 5 800] ------- [5:255 -1:255 32 0] [1 1 [HELLO 5 0 1]]
s 1.897854105 _8_ RTR  --- 11 OLSR 68 [0 0 0 0] ------- [8:255 -1:255 32 0] [1 1 [HELLO 8 0 1]]
s 1.898409105 _8_ MAC  --- 11 OLSR 126 [0 ffffffff 8 800] ------- [8:255 -1:255 32 0] [1 1 [HELLO 8 0 1]]
r 1.899417411 _6_ MAC  --- 11 OLSR 68 [0 ffffffff 8 800] ------- [8:255 -1:255 32 0] [1 1 [HELLO 8 0 1]]
r 1.899417534 _7_ MAC  --- 11 OLSR 68 [0 ffffffff 8 800] ------- [8:255 -1:255 32 0] [1 1 [HELLO 8 0 1]]
r 1.899417744 _4_ MAC  --- 11 OLSR 68 [0 ffffffff 8 800] ------- [8:255 -1:255 32 0] [1 1 [HELLO 8 0 1]]
r 1.899417819 _5_ MAC  --- 11 OLSR 68 [0 ffffffff 8 800] ------- [8:255 -1:255 32 0] [1 1 [HELLO 8 0 1]]
r 1.899442411 _6_ RTR  --- 11 OLSR 68 [0 ffffffff 8 800] ------- [8:255 -1:255 32 0] [1 1 [HELLO 8 0 1]]
r 1.899442534 _7_ RTR  --- 11 OLSR 68 [0 ffffffff 8 800] ------- [8:255 -1:255 32 0] [1 1 [HELLO 8 0 1]]
r 1.899442744 _4_ RTR  --- 11 OLSR 68 [0 ffffffff 8 800] ------- [8:255 -1:255 32 0] [1 1 [HELLO 8 0 1]]
r 1.899442819 _5_ RTR  --- 11 OLSR 68 [0 ffffffff 8 800] ------- [8:255 -1:255 32 0] [1 1 [HELLO 8 0 1]]
s 1.992256948 _1_ RTR  --- 12 OLSR 76 [0 0 0 0] ------- [1:255 -1:255 32 0] [1 1 [HELLO 1 0 1]]
s 1.992451948 _1_ MAC  --- 12 OLSR 134 [0 ffffffff 1 800] ------- [1:255 -1:255 32 0] [1 1 [HELLO 1 0 1]]
r 1.993524295 _0_ MAC  --- 12 OLSR 76 [0 ffffffff 1 800] ------- [1:255 -1:255 32 0] [1 1 [HELLO 1 0 1]]
r 1.993524309 _2_ MAC  --- 12 OLSR 76 [0 ffffffff 1 800] ------- [1:255 -1:255 32 0] [1 1 [HELLO 1 0 1]]
r 1.993524439 _5_ MAC  --- 12 OLSR 76 [0 ffffffff 1 800] ------- [1:255 -1:255 32 0] [1 1 [HELLO 1 0 1]]
r 1.993524526 _4_ MAC  --- 12 OLSR 76 [0 ffffffff 1 800] ------- [1:255 -1:255 32 0] [1 1 [HELLO 1 0 1]]
r 1.993549295 _0_ RTR  --- 12 OLSR 76 [0 ffffffff 1 800] ------- [1:255 -1:255 32 0] [1 1 [HELLO 1 0 1]]
r 1.993549309 _2_ RTR  --- 12 OLSR 76 [0 ffffffff 1 800] ------- [1:255 -1:255 32 0] [1 1 [HELLO 1 0 1]]
r 1.993549439 _5_ RTR  --- 12 OLSR 76 [0 ffffffff 1 800] ------- [1:255 -1:255 32 0] [1 1 [HELLO 1 0 1]]
r 1.993549526 _4_ RTR  --- 12 OLSR 76 [0 ffffffff 1 800] ------- [1:255 -1:255 32 0] [1 1 [HELLO 1 0 1]]
s 1.994470625 _0_ RTR  --- 13 OLSR 72 [0 0 0 0] ------- [0:255 -1:255 32 0] [1 1 [HELLO 0 0 1]]
s 1.994645625 _0_ MAC  --- 13 OLSR 130 [0 ffffffff 0 800] ------- [0:255 -1:255 32 0] [1 1 [HELLO 0 0 1]]
r 1.995685934 _2_ MAC  --- 13 OLSR 72 [0 ffffffff 0 800] ------- [0:255 -1:255 32 0] [1 1 [HELLO 0 0 1]]
r 1.995685972 _1_ MAC  --- 13 OLSR 72 [0 ffffffff 0 800] ------- [0:255 -1:255 32 0] [1 1 [HELLO 0 0 1]]
r 1.995686260 _4_ MAC  --- 13 OLSR 72 [0 ffffffff 0 800] ------- [0:255 -1:255 32 0] [1 1 [HELLO 0 0 1]]
r 1.995686346 _5_ MAC  --- 13 OLSR 72 [0 ffffffff 0 800] ------- [0:255 -1:255 32 0] [1 1 [HELLO 0 0 1]]
r 1.995710934 _2_ RTR  --- 13 OLSR 72 [0 ffffffff 0 800] ------- [0:255 -1:255 32 0] [1 1 [HELLO 0 0 1]]
r 1.995710972 _1_ RTR  --- 13 OLSR 72 [0 ffffffff 0 800] ------- [0:255 -1:255 32 0] [1 1 [HELLO 0 0 1]]
r 1.995711260 _4_ RTR  --- 13 OLSR 72 [0 ffffffff 0 800] ------- [0:255 -1:255 32 0] [1 1 [HELLO 0 0 1]]
r 1.995711346 _5_ RTR  --- 13 OLSR 72 [0 ffffffff 0 800] ------- [0:255 -1:255 32 0] [1 1 [HELLO 0 0 1]]
M 2.00000 6 (400.00, 200.00, 0.00), (480.00, 280.00), 5.00
s 2.009118971 _3_ RTR  --- 14 OLSR 68 [0 0 0 0] ------- [3:255 -1:255 32 0] [1 1 [HELLO 3 0 1]]
s 2.009453971 _3_ MAC  --- 14 OLSR 126 [0 ffffffff 3 800] ------- [3:255 -1:255 32 0] [1 1 [HELLO 3 0 1]]
r 2.010462621 _4_ MAC  --- 14 OLSR 68 [0 ffffffff 3 800] ------- [3:255 -1:255 32 0] [1 1 [HELLO 3 0 1]]
r 2.010462685 _2_ MAC  --- 14 OLSR 68 [0 ffffffff 3 800] ------- [3:255 -1:255 32 0] [1 1 [HELLO 3 0 1]]
r 2.010462700 _6_ MAC  --- 14 OLSR 68 [0 ffffffff 3 800] ------- [3:255 -1:255 32 0] [1 1 [HELLO 3 0 1]]
r 2.010487621 _4_ RTR  --- 14 OLSR 68 [0 ffffffff 3 800] ------- [3:255 -1:255 32 0] [1 1 [HELLO 3 0 1]]
r 2.010487685 _2_ RTR  --- 14 OLSR 68 [0 ffffffff 3 800] ------- [3:255 -1:255 32 0] [1 1 [HELLO 3 0 1]]
r 2.010487700 _6_ RTR  --- 14 OLSR 68 [0 ffffffff 3 800] ------- [3:255 -1:255 32 0] [1 1 [HELLO 3 0 1]]
s 2.224463573 _4_ RTR  --- 15 OLSR 88 [0 0 0 0] ------- [4:255 -1:255 32 0] [1 1 [HELLO 4 0 1]]
s 2.224598573 _4_ MAC  --- 15 OLSR 146 [0 ffffffff 4 800] ------- [4:255 -1:255 32 0] [1 1 [HELLO 4 0 1]]
r 2.225766898 _2_ MAC  --- 15 OLSR 88 [0 ffffffff 4 800] ------- [4:255 -1:255 32 0] [1 1 [HELLO 4 0 1]]
r 2.225766906 _5_ MAC  --- 15 OLSR 88 [0 ffffffff 4 800] ------- [4:255 -1:255 32 0] [1 1 [HELLO 4 0 1]]
r 2.225766909 _6_ MAC  --- 15 OLSR 88 [0 ffffffff 4 800] ------- [4:255 -1:255 32 0] [1 1 [HELLO 4 0 1]]
r 2.225767055 _7_ MAC  --- 15 OLSR 88 [0 ffffffff 4 800] ------- [4:255 -1:255 32 0] [1 1 [HELLO 4 0 1]]
r 2.225767151 _1_ MAC  --- 15 OLSR 88 [0 ffffffff 4 800] ------- [4:255 -1:255 32 0] [1 1 [HELLO 4 0 1]]
r 2.225767204 _0_ MAC  --- 15 OLSR 88 [0 ffffffff 4 800] ------- [4:255 -1:255 32 0] [1 1 [HELLO 4 0 1]]
r 2.225767207 _8_ MAC  --- 15 OLSR 88 [0 ffffffff 4 800] ------- [4:255 -1:255 32 0] [1 1 [HELLO 4 0 1]]
r 2.225767219 _3_ MAC  --- 15 OLSR 88 [0 ffffffff 4 800] ------- [4:255 -1:255 32 0] [1 1 [HELLO 4 0 1]]
r 2.225791898 _2_ RTR  --- 15 OLSR 88 [0 ffffffff 4 800] ------- [4:255 -1:255 32 0] [1 1 [HELLO 4 0 1]]
r 2.225791906 _5_ RTR  --- 15 OLSR 88 [0 ffffffff 4 800] ------- [4:255 -1:255 32 0] [1 1 [HELLO 4 0 1]]
r 2.225791909 _6_ RTR  --- 15 OLSR 88 [0 ffffffff 4 800] ------- [4:255 -1:255 32 0] [1 1 [HELLO 4 0 1]]
r 2.225792055 _7_ RTR  --- 15 OLSR 88 [0 ffffffff 4 800] ------- [4:255 -1:255 32 0] [1 1 [HELLO 4 0 1]]
r 2.225792151 _1_ RTR  --- 15 OLSR 88 [0 ffffffff 4 800] ------- [4:255 -1:255 32 0] [1 1 [HELLO 4 0 1]]
r 2.225792204 _0_ RTR  --- 15 OLSR 88 [0 ffffffff 4 800] ------- [4:255 -1:255 32 0] [1 1 [HELLO 4 0 1]]
r 2.225792207 _8_ RTR  --- 15 OLSR 88 [0 ffffffff 4 800] ------- [4:255 -1:255 32 0] [1 1 [HELLO 4 0 1]]
r 2.225792219 _3_ RTR  --- 15 OLSR 88 [0 ffffffff 4 800] ------- [4:255 -1:255 32 0] [1 1 [HELLO 4 0 1]]
s 2.257303894 _7_ RTR  --- 16 OLSR 80 [0 0 0 0] ------- [7:255 -1:255 32 0] [1 1 [HELLO 7 0 1]]
s 2.257978894 _7_ MAC  --- 16 OLSR 138 [0 ffffffff 7 800] ------- [7:255 -1:255 32 0] [1 1 [HELLO 7 0 1]]
r 2.259083226 _6_ MAC  --- 16 OLSR 80 [0 ffffffff 7 800] ------- [7:255 -1:255 32 0] [1 1 [HELLO 7 0 1]]
r 2.259083248 _5_ MAC  --- 16 OLSR 80 [0 ffffffff 7 800] ------- [7:255 -1:255 32 0] [1 1 [HELLO 7 0 1]]
r 2.259083313 _8_ MAC  --- 16 OLSR 80 [0 ffffffff 7 800] ------- [7:255 -1:255 32 0] [1 1 [HELLO 7 0 1]]
r 2.259083377 _4_ MAC  --- 16 OLSR 80 [0 ffffffff 7 800] ------- [7:255 -1:255 32 0] [1 1 [HELLO 7 0 1]]
r 2.259083656 _2_ MAC  --- 16 OLSR 80 [0 ffffffff 7 800] ------- [7:255 -1:255 32 0] [1 1 [HELLO 7 0 1]]
r 2.259108226 _6_ RTR  --- 16 OLSR 80 [0 ffffffff 7 800] ------- [7:255 -1:255 32 0] [1 1 [HELLO 7 0 1]]
r 2.259108248 _5_ RTR  --- 16 OLSR 80 [0 ffffffff 7 800] ------- [7:255 -1:255 32 0] [1 1 [HELLO 7 0 1]]
r 2.259108313 _8_ RTR  --- 16 OLSR 80 [0 ffffffff 7 800] ------- [7:255 -1:255 32 0] [1 1 [HELLO 7 0 1]]
r 2.259108377 _4_ RTR  --- 16 OLSR 80 [0 ffffffff 7 800] ------- [7:255 -1:255 32 0] [1 1 [HELLO 7 0 1]]
r 2.259108656 _2_ RTR  --- 16 OLSR 80 [0 ffffffff 7 800] ------- [7:255 -1:255 32 0] [1 1 [HELLO 7 0 1]]
s 2.440933923 _6_ RTR  --- 17 OLSR 80 [0 0 0 0] ------- [6:255 -1:255 32 0] [1 1 [HELLO 6 0 1]]
s 2.441068923 _6_ MAC  --- 17 OLSR 138 [0 ffffffff 6 800] ------- [6:255 -1:255 32 0] [1 1 [HELLO 6 0 1]]
r 2.442173215 _8_ MAC  --- 17 OLSR 80 [0 ffffffff 6 800] ------- [6:255 -1:255 32 0] [1 1 [HELLO 6 0 1]]
r 2.442173256 _7_ MAC  --- 17 OLSR 80 [0 ffffffff 6 800] ------- [6:255 -1:255 32 0] [1 1 [HELLO 6 0 1]]
r 2.442173261 _4_ MAC  --- 17 OLSR 80 [0 ffffffff 6 800] ------- [6:255 -1:255 32 0] [1 1 [HELLO 6 0 1]]
r 2.442173401 _5_ MAC  --- 17 OLSR 80 [0 ffffffff 6 800] ------- [6:255 -1:255 32 0] [1 1 [HELLO 6 0 1]]
r 2.442173584 _2_ MAC  --- 17 OLSR 80 [0 ffffffff 6 800] ------- [6:255 -1:255 32 0] [1 1 [HELLO 6 0 1]]
r 2.442173644 _3_ MAC  --- 17 OLSR 80 [0 ffffffff 6 800] ------- [6:255 -1:255 32 0] [1 1 [HELLO 6 0 1]]
r 2.442198215 _8_ RTR  --- 17 OLSR 80 [0 ffffffff 6 800] ------- [6:255 -1:255 32 0] [1 1 [HELLO 6 0 1]]
r 2.442198256 _7_ RTR  --- 17 OLSR 80 [0 ffffffff 6 800] ------- [6:255 -1:255 32 0] [1 1 [HELLO 6 0 1]]
r 2.442198261 _4_ RTR  --- 17 OLSR 80 [0 ffffffff 6 800] ------- [6:255 -1:255 32 0] [1 1 [HELLO 6 0 1]]
r 2.442198401 _5_ RTR  --- 17 OLSR 80 [0 ffffffff 6 800] ------- [6:255 -1:255 32 0] [1 1 [HELLO 6 0 1]]
r 2.442198584 _2_ RTR  --- 17 OLSR 80 [0 ffffffff 6 800] ------- [6:255 -1:255 32 0] [1 1 [HELLO 6 0 1]]
r 2.442198644 _3_ RTR  --- 17 OLSR 80 [0 ffffffff 6 800] ------- [6:255 -1:255 32 0] [1 1 [HELLO 6 0 1]]
M 3.00000 4 (300.00, 200.00, 0.00), (300.00, 228.00), 5.00
M 3.00000 5 (300.00, 100.00, 0.00), (340.00, 134.00), 5.00
s 3.435479318 _2_ RTR  --- 18 OLSR 84 [0 0 0 0] ------- [2:255 -1:255 32 0] [1 2 [HELLO 2 0 2]]
s 3.435854318 _2_ MAC  --- 18 OLSR 142 [0 ffffffff 2 800] ------- [2:255 -1:255 32 0] [1 2 [HELLO 2 0 2]]
r 3.436990615 _0_ MAC  --- 18 OLSR 84 [0 ffffffff 2 800] ------- [2:255 -1:255 32 0] [1 2 [HELLO 2 0 2]]
r 3.436990634 _4_ MAC  --- 18 OLSR 84 [0 ffffffff 2 800] ------- [2:255 -1:255 32 0] [1 2 [HELLO 2 0 2]]
r 3.436990703 _1_ MAC  --- 18 OLSR 84 [0 ffffffff 2 800] ------- [2:255 -1:255 32 0] [1 2 [HELLO 2 0 2]]
r 3.436990804 _5_ MAC  --- 18 OLSR 84 [0 ffffffff 2 800] ------- [2:255 -1:255 32 0] [1 2 [HELLO 2 0 2]]
r 3.436990984 _6_ MAC  --- 18 OLSR 84 [0 ffffffff 2 800] ------- [2:255 -1:255 32 0] [1 2 [HELLO 2 0 2]]
r 3.436990988 _3_ MAC  --- 18 OLSR 84 [0 ffffffff 2 800] ------- [2:255 -1:255 32 0] [1 2 [HELLO 2 0 2]]
r 3.436991095 _7_ MAC  --- 18 OLSR 84 [0 ffffffff 2 800] ------- [2:255 -1:255 32 0] [1 2 [HELLO 2 0 2]]
r 3.437015615 _0_ RTR  --- 18 OLSR 84 [0 ffffffff 2 800] ------- [2:255 -1:255 32 0] [1 2 [HELLO 2 0 2]]
r 3.437015634 _4_ RTR  --- 18 OLSR 84 [0 ffffffff 2 800] ------- [2:255 -1:255 32 0] [1 2 [HELLO 2 0 2]]
r 3.437015703 _1_ RTR  --- 18 OLSR 84 [0 ffffffff 2 800] ------- [2:255 -1:255 32 0] [1 2 [HELLO 2 0 2]]
r 3.437015804 _5_ RTR  --- 18 OLSR 84 [0 ffffffff 2 800] ------- [2:255 -1:255 32 0] [1 2 [HELLO 2 0 2]]
r 3.437015984 _6_ RTR  --- 18 OLSR 84 [0 ffffffff 2 800] ------- [2:255 -1:255 32 0] [1 2 [HELLO 2 0 2]]
r 3.437015988 _3_ RTR  --- 18 OLSR 84 [0 ffffffff 2 800] ------- [2:255 -1:255 32 0] [1 2 [HELLO 2 0 2]]
r 3.437016095 _7_ RTR  --- 18 OLSR 84 [0 ffffffff 2 800] ------- [2:255 -1:255 32 0] [1 2 [HELLO 2 0 2]]
s 3.676324118 _8_ RTR  --- 19 OLSR 72 [0 0 0 0] ------- [8:255 -1:255 32 0] [1 2 [HELLO 8 0 2]]
s 3.676619118 _8_ MAC  --- 19 OLSR 130 [0 ffffffff 8 800] ------- [8:255 -1:255 32 0] [1 2 [HELLO 8 0 2]]
r 3.677659381 _6_ MAC  --- 19 OLSR 72 [0 ffffffff 8 800] ------- [8:255 -1:255 32 0] [1 2 [HELLO 8 0 2]]
r 3.677659496 _7_ MAC  --- 19 OLSR 72 [0 ffffffff 8 800] ------- [8:255 -1:255 32 0] [1 2 [HELLO 8 0 2]]
r 3.677659731 _4_ MAC  --- 19 OLSR 72 [0 ffffffff 8 800] ------- [8:255 -1:255 32 0] [1 2 [HELLO 8 0 2]]
r 3.677659791 _5_ MAC  --- 19 OLSR 72 [0 ffffffff 8 800] ------- [8:255 -1:255 32 0] [1 2 [HELLO 8 0 2]]
r 3.677684381 _6_ RTR  --- 19 OLSR 72 [0 ffffffff 8 800] ------- [8:255 -1:255 32 0] [1 2 [HELLO 8 0 2]]
r 3.677684496 _7_ RTR  --- 19 OLSR 72 [0 ffffffff 8 800] ------- [8:255 -1:255 32 0] [1 2 [HELLO 8 0 2]]
r 3.677684731 _4_ RTR  --- 19 OLSR 72 [0 ffffffff 8 800] ------- [8:255 -1:255 32 0] [1 2 [HELLO 8 0 2]]
r 3.677684791 _5_ RTR  --- 19 OLSR 72 [0 ffffffff 8 800] ------- [8:255 -1:255 32 0] [1 2 [HELLO 8 0 2]]
s 3.691522976 _0_ RTR  --- 20 OLSR 72 [0 0 0 0] ------- [0:255 -1:255 32 0] [1 2 [HELLO 0 0 2]]
s 3.691757976 _0_ MAC  --- 20 OLSR 130 [0 ffffffff 0 800] ------- [0:255 -1:255 32 0] [1 2 [HELLO 0 0 2]]
r 3.692798271 _2_ MAC  --- 20 OLSR 72 [0 ffffffff 0 800] ------- [0:255 -1:255 32 0] [1 2 [HELLO 0 0 2]]
r 3.692798319 _1_ MAC  --- 20 OLSR 72 [0 ffffffff 0 800] ------- [0:255 -1:255 32 0] [1 2 [HELLO 0 0 2]]
r 3.692798583 _4_ MAC  --- 20 OLSR 72 [0 ffffffff 0 800] ------- [0:255 -1:255 32 0] [1 2 [HELLO 0 0 2]]
r 3.692798680 _5_ MAC  --- 20 OLSR 72 [0 ffffffff 0 800] ------- [0:255 -1:255 32 0] [1 2 [HELLO 0 0 2]]
r 3.692823271 _2_ RTR  --- 20 OLSR 72 [0 ffffffff 0 800] ------- [0:255 -1:255 32 0] [1 2 [HELLO 0 0 2]]
r 3.692823319 _1_ RTR  --- 20 OLSR 72 [0 ffffffff 0 800] ------- [0:255 -1:255 32 0] [1 2 [HELLO 0 0 2]]
r 3.692823583 _4_ RTR  --- 20 OLSR 72 [0 ffffffff 0 800] ------- [0:255 -1:255 32 0] [1 2 [HELLO 0 0 2]]
r 3.692823680 _5_ RTR  --- 20 OLSR 72 [0 ffffffff 0 800] ------- [0:255 -1:255 32 0] [1 2 [HELLO 0 0 2]]
s 3.734067728 _5_ RTR  --- 21 OLSR 80 [0 0 0 0] ------- [5:255 -1:255 32 0] [1 2 [HELLO 5 0 2]]
s 3.734542728 _5_ MAC  --- 21 OLSR 138 [0 ffffffff 5 800] ------- [5:255 -1:255 32 0] [1 2 [HELLO 5 0 2]]
r 3.735647066 _4_ MAC  --- 21 OLSR 80 [0 ffffffff 5 800] ------- [5:255 -1:255 32 0] [1 2 [HELLO 5 0 2]]
r 3.735647097 _7_ MAC  --- 21 OLSR 80 [0 ffffffff 5 800] ------- [5:255 -1:255 32 0] [1 2 [HELLO 5 0 2]]
r 3.735647216 _2_ MAC  --- 21 OLSR 80 [0 ffffffff 5 800] ------- [5:255 -1:255 32 0] [1 2 [HELLO 5 0 2]]
r 3.735647217 _6_ MAC  --- 21 OLSR 80 [0 ffffffff 5 800] ------- [5:255 -1:255 32 0] [1 2 [HELLO 5 0 2]]
r 3.735647228 _1_ MAC  --- 21 OLSR 80 [0 ffffffff 5 800] ------- [5:255 -1:255 32 0] [1 2 [HELLO 5 0 2]]
r 3.735647400 _8_ MAC  --- 21 OLSR 80 [0 ffffffff 5 800] ------- [5:255 -1:255 32 0] [1 2 [HELLO 5 0 2]]
r 3.735647433 _0_ MAC  --- 21 OLSR 80 [0 ffffffff 5 800] ------- [5:255 -1:255 32 0] [1 2 [HELLO 5 0 2]]
r 3.735672066 _4_ RTR  --- 21 OLSR 80 [0 ffffffff 5 800] ------- [5:255 -1:255 32 0] [1 2 [HELLO 5 0 2]]
r 3.735672097 _7_ RTR  --- 21 OLSR 80 [0 ffffffff 5 800] ------- [5:255 -1:255 32 0] [1 2 [HELLO 5 0 2]]
r 3.735672216 _2_ RTR  --- 21 OLSR 80 [0 ffffffff 5 800] ------- [5:255 -1:255 32 0] [1 2 [HELLO 5 0 2]]
r 3.735672217 _6_ RTR  --- 21 OLSR 80 [0 ffffffff 5 800] ------- [5:255 -1:255 32 0] [1 2 [HELLO 5 0 2]]
r 3.735672228 _1_ RTR  --- 21 OLSR 80 [0 ffffffff 5 800] ------- [5:255 -1:255 32 0] [1 2 [HELLO 5 0 2]]
r 3.735672400 _8_ RTR  --- 21 OLSR 80 [0 ffffffff 5 800] ------- [5:255 -1:255 32 0] [1 2 [HELLO 5 0 2]]